Program Version,EnergyPlus, Version 9.0.1-bb7ca4f0da, YMD=2022.04.26 19:50
1,5,Environment Title[],Latitude[deg],Longitude[deg],Time Zone[],Elevation[m]
2,8,Day of Simulation[],Month[],Day of Month[],DST Indicator[1=yes 0=no],Hour[],StartMinute[],EndMinute[],DayType
3,5,Cumulative Day of Simulation[],Month[],Day of Month[],DST Indicator[1=yes 0=no],DayType  ! When Daily Report Variables Requested
4,2,Cumulative Days of Simulation[],Month[]  ! When Monthly Report Variables Requested
5,1,Cumulative Days of Simulation[] ! When Run Period Report Variables Requested
6,1,Calendar Year of Simulation[] ! When Annual Report Variables Requested
7,1,Environment,Site Outdoor Air Drybulb Temperature [C] !Hourly
2176,1,PACU_VAV_BOT,Air System Total Heating Energy [J] !Hourly
2177,1,PACU_VAV_BOT,Air System Total Cooling Energy [J] !Hourly
2178,1,PACU_VAV_MID,Air System Total Heating Energy [J] !Hourly
2179,1,PACU_VAV_MID,Air System Total Cooling Energy [J] !Hourly
2180,1,PACU_VAV_TOP,Air System Total Heating Energy [J] !Hourly
2181,1,PACU_VAV_TOP,Air System Total Cooling Energy [J] !Hourly
End of Data Dictionary
1,RUNPERIOD 1,  32.58,-116.98,  -8.00, 159.00
2,1, 1, 1, 0, 1, 0.00,60.00,Holiday
7,8.416666666666666
2176,0.0
2177,0.0
2178,0.0
2179,0.0
2180,0.0
2181,0.0
2,1, 1, 1, 0, 2, 0.00,60.00,Holiday
7,8.0
2176,0.0
2177,0.0
2178,0.0
2179,0.0
2180,0.0
2181,0.0
2,1, 1, 1, 0, 3, 0.00,60.00,Holiday
7,8.583333333333334
2176,0.0
2177,0.0
2178,0.0
2179,0.0
2180,0.0
2181,0.0
2,1, 1, 1, 0, 4, 0.00,60.00,Holiday
7,9.0
2176,0.0
2177,0.0
2178,0.0
2179,0.0
2180,0.0
2181,0.0
2,1, 1, 1, 0, 5, 0.00,60.00,Holiday
7,9.0
2176,0.0
2177,0.0
2178,0.0
2179,0.0
2180,0.0
2181,0.0
2,1, 1, 1, 0, 6, 0.00,60.00,Holiday
7,8.416666666666666
2176,0.0
2177,0.0
2178,0.0
2179,0.0
2180,0.0
2181,0.0
2,1, 1, 1, 0, 7, 0.00,60.00,Holiday
7,8.583333333333334
2176,0.0
2177,0.0
2178,0.0
2179,0.0
2180,0.0
2181,0.0
2,1, 1, 1, 0, 8, 0.00,60.00,Holiday
7,9.583333333333334
2176,0.0
2177,0.0
2178,0.0
2179,0.0
2180,0.0
2181,0.0
2,1, 1, 1, 0, 9, 0.00,60.00,Holiday
7,11.166666666666666
2176,0.0
2177,0.0
2178,0.0
2179,0.0
2180,0.0
2181,0.0
2,1, 1, 1, 0,10, 0.00,60.00,Holiday
7,12.583333333333334
2176,0.0
2177,0.0
2178,0.0
2179,0.0
2180,0.0
2181,0.0
2,1, 1, 1, 0,11, 0.00,60.00,Holiday
7,13.0
2176,0.0
2177,0.0
2178,0.0
2179,0.0
2180,0.0
2181,0.0
2,1, 1, 1, 0,12, 0.00,60.00,Holiday
7,13.0
2176,0.0
2177,0.0
2178,0.0
2179,0.0
2180,0.0
2181,0.0
2,1, 1, 1, 0,13, 0.00,60.00,Holiday
7,13.0
2176,0.0
2177,0.0
2178,0.0
2179,0.0
2180,0.0
2181,0.0
2,1, 1, 1, 0,14, 0.00,60.00,Holiday
7,13.0
2176,0.0
2177,0.0
2178,0.0
2179,0.0
2180,0.0
2181,0.0
2,1, 1, 1, 0,15, 0.00,60.00,Holiday
7,13.0
2176,0.0
2177,0.0
2178,0.0
2179,0.0
2180,0.0
2181,0.0
2,1, 1, 1, 0,16, 0.00,60.00,Holiday
7,13.0
2176,0.0
2177,0.0
2178,0.0
2179,0.0
2180,0.0
2181,0.0
2,1, 1, 1, 0,17, 0.00,60.00,Holiday
7,11.833333333333334
2176,0.0
2177,0.0
2178,0.0
2179,0.0
2180,0.0
2181,0.0
2,1, 1, 1, 0,18, 0.00,60.00,Holiday
7,11.0
2176,0.0
2177,0.0
2178,0.0
2179,0.0
2180,0.0
2181,0.0
2,1, 1, 1, 0,19, 0.00,60.00,Holiday
7,11.0
2176,0.0
2177,0.0
2178,0.0
2179,0.0
2180,0.0
2181,0.0
2,1, 1, 1, 0,20, 0.00,60.00,Holiday
7,11.0
2176,0.0
2177,0.0
2178,0.0
2179,0.0
2180,0.0
2181,0.0
2,1, 1, 1, 0,21, 0.00,60.00,Holiday
7,11.0
2176,0.0
2177,0.0
2178,0.0
2179,0.0
2180,0.0
2181,0.0
2,1, 1, 1, 0,22, 0.00,60.00,Holiday
7,11.0
2176,0.0
2177,0.0
2178,0.0
2179,0.0
2180,0.0
2181,0.0
2,1, 1, 1, 0,23, 0.00,60.00,Holiday
7,10.416666666666666
2176,0.0
2177,0.0
2178,0.0
2179,0.0
2180,0.0
2181,0.0
2,1, 1, 1, 0,24, 0.00,60.00,Holiday
7,9.416666666666666
2176,0.0
2177,0.0
2178,0.0
2179,0.0
2180,0.0
2181,0.0
2,2, 1, 2, 0, 1, 0.00,60.00,Monday
7,9.583333333333334
2176,0.0
2177,0.0
2178,0.0
2179,0.0
2180,0.0
2181,0.0
2,2, 1, 2, 0, 2, 0.00,60.00,Monday
7,9.416666666666666
2176,0.0
2177,0.0
2178,0.0
2179,0.0
2180,0.0
2181,0.0
2,2, 1, 2, 0, 3, 0.00,60.00,Monday
7,10.166666666666666
2176,0.0
2177,0.0
2178,0.0
2179,0.0
2180,0.0
2181,0.0
2,2, 1, 2, 0, 4, 0.00,60.00,Monday
7,10.416666666666666
2176,0.0
2177,0.0
2178,0.0
2179,0.0
2180,0.0
2181,0.0
2,2, 1, 2, 0, 5, 0.00,60.00,Monday
7,10.583333333333334
2176,0.0
2177,0.0
2178,0.0
2179,0.0
2180,0.0
2181,0.0
2,2, 1, 2, 0, 6, 0.00,60.00,Monday
7,11.0
2176,0.0
2177,0.0
2178,0.0
2179,0.0
2180,0.0
2181,0.0
2,2, 1, 2, 0, 7, 0.00,60.00,Monday
7,11.0
2176,3506648.3233657248
2177,0.0
2178,3018725.6786584809
2179,0.0
2180,22270633.164012884
2181,0.0
2,2, 1, 2, 0, 8, 0.00,60.00,Monday
7,11.0
2176,24891694.785136329
2177,0.0
2178,14139302.199829149
2179,0.0
2180,48774832.50804143
2181,0.0
2,2, 1, 2, 0, 9, 0.00,60.00,Monday
7,12.166666666666666
2176,6613890.229018563
2177,0.0
2178,3018725.678658477
2179,0.0
2180,6725427.671105627
2181,0.0
2,2, 1, 2, 0,10, 0.00,60.00,Monday
7,13.0
2176,4490327.381987048
2177,0.0
2178,3036779.7685006808
2179,0.0
2180,3019427.314855267
2181,0.0
2,2, 1, 2, 0,11, 0.00,60.00,Monday
7,14.166666666666666
2176,4353992.574139448
2177,3894388.088062171
2178,3222428.5777678729
2179,2980688.5126796665
2180,3156879.8731573859
2181,2947625.81399341
2,2, 1, 2, 0,12, 0.00,60.00,Monday
7,14.416666666666666
2176,5010375.410082923
2177,5058096.528793894
2178,3888881.1196010487
2179,3933629.960218316
2180,3555568.9851346008
2181,3688936.724521409
2,2, 1, 2, 0,13, 0.00,60.00,Monday
7,14.0
2176,5233779.290529084
2177,0.0
2178,3770119.5661591447
2179,0.0
2180,3738169.5398832636
2181,0.0
2,2, 1, 2, 0,14, 0.00,60.00,Monday
7,14.0
2176,5773478.76745072
2177,0.0
2178,4119380.598686278
2179,0.0
2180,3850745.702034485
2181,0.0
2,2, 1, 2, 0,15, 0.00,60.00,Monday
7,13.416666666666666
2176,5565341.177901501
2177,0.0
2178,3935491.967910143
2179,0.0
2180,3877757.0195494296
2181,0.0
2,2, 1, 2, 0,16, 0.00,60.00,Monday
7,13.0
2176,5735881.511991019
2177,0.0
2178,4044660.6467627317
2179,0.0
2180,3750874.164781104
2181,0.0
2,2, 1, 2, 0,17, 0.00,60.00,Monday
7,11.833333333333334
2176,6397258.084475549
2177,0.0
2178,3511924.2246855597
2179,0.0
2180,3268353.8739489216
2181,0.0
2,2, 1, 2, 0,18, 0.00,60.00,Monday
7,9.833333333333334
2176,19108779.04909859
2177,0.0
2178,3243197.7438677058
2179,0.0
2180,3461055.2648957485
2181,0.0
2,2, 1, 2, 0,19, 0.00,60.00,Monday
7,9.0
2176,3506648.3233657146
2177,0.0
2178,4663671.870023647
2179,0.0
2180,6405161.321899304
2181,0.0
2,2, 1, 2, 0,20, 0.00,60.00,Monday
7,7.833333333333333
2176,7593533.284287435
2177,0.0
2178,9035638.915228107
2179,0.0
2180,12621705.68476248
2181,0.0
2,2, 1, 2, 0,21, 0.00,60.00,Monday
7,6.416666666666667
2176,9531404.19008679
2177,0.0
2178,14190314.162920617
2179,0.0
2180,21554323.218242147
2181,0.0
2,2, 1, 2, 0,22, 0.00,60.00,Monday
7,6.583333333333333
2176,9993181.448478653
2177,0.0
2178,13987468.399067844
2179,0.0
2180,23981567.46561493
2181,0.0
2,2, 1, 2, 0,23, 0.00,60.00,Monday
7,6.416666666666667
2176,0.0
2177,0.0
2178,0.0
2179,0.0
2180,0.0
2181,0.0
2,2, 1, 2, 0,24, 0.00,60.00,Monday
7,6.583333333333333
2176,0.0
2177,0.0
2178,0.0
2179,0.0
2180,0.0
2181,0.0
2,3, 1, 3, 0, 1, 0.00,60.00,Tuesday
7,6.416666666666667
2176,0.0
2177,0.0
2178,0.0
2179,0.0
2180,0.0
2181,0.0
2,3, 1, 3, 0, 2, 0.00,60.00,Tuesday
7,4.25
2176,0.0
2177,0.0
2178,0.0
2179,0.0
2180,0.0
2181,0.0
2,3, 1, 3, 0, 3, 0.00,60.00,Tuesday
7,4.166666666666667
2176,0.0
2177,0.0
2178,0.0
2179,0.0
2180,0.0
2181,0.0
2,3, 1, 3, 0, 4, 0.00,60.00,Tuesday
7,4.416666666666667
2176,0.0
2177,0.0
2178,0.0
2179,0.0
2180,0.0
2181,0.0
2,3, 1, 3, 0, 5, 0.00,60.00,Tuesday
7,3.4166666666666667
2176,0.0
2177,0.0
2178,0.0
2179,0.0
2180,0.0
2181,0.0
2,3, 1, 3, 0, 6, 0.00,60.00,Tuesday
7,4.166666666666667
2176,0.0
2177,0.0
2178,0.0
2179,0.0
2180,0.0
2181,0.0
2,3, 1, 3, 0, 7, 0.00,60.00,Tuesday
7,3.8333333333333337
2176,9278915.5065652
2177,0.0
2178,22912364.225036749
2179,0.0
2180,43530183.837478499
2181,0.0
2,3, 1, 3, 0, 8, 0.00,60.00,Tuesday
7,5.333333333333333
2176,33073874.67131584
2177,0.0
2178,25373805.438158465
2179,0.0
2180,51379389.31791458
2181,0.0
2,3, 1, 3, 0, 9, 0.00,60.00,Tuesday
7,9.333333333333334
2176,8355505.244180895
2177,0.0
2178,6260930.138802612
2179,0.0
2180,12435304.400927263
2181,0.0
2,3, 1, 3, 0,10, 0.00,60.00,Tuesday
7,12.166666666666666
2176,5672204.581971009
2177,0.0
2178,3606321.1505397276
2179,0.0
2180,3105190.100239628
2181,0.0
2,3, 1, 3, 0,11, 0.00,60.00,Tuesday
7,14.166666666666666
2176,5537154.064647887
2177,4180746.530652997
2178,3762743.612190223
2179,2955088.217376966
2180,3513450.9787090367
2181,2869134.7068823759
2,3, 1, 3, 0,12, 0.00,60.00,Tuesday
7,16.75
2176,6057856.198391513
2177,36437909.30196215
2178,4259321.397974371
2179,26232638.735442085
2180,3863031.246308377
2181,24693308.066073523
2,3, 1, 3, 0,13, 0.00,60.00,Tuesday
7,18.583333333333333
2176,5535491.593727899
2177,57096154.06119251
2178,4067452.65440042
2179,42367829.3035786
2180,3996935.210410633
2181,42080728.848450679
2,3, 1, 3, 0,14, 0.00,60.00,Tuesday
7,17.833333333333333
2176,6997391.673130579
2177,55772467.152343127
2178,4533886.344614478
2179,38350666.16819986
2180,4197000.182079942
2181,36688854.69079502
2,3, 1, 3, 0,15, 0.00,60.00,Tuesday
7,17.583333333333333
2176,6606439.221277349
2177,50404412.69489292
2178,4586901.203471416
2179,36167329.48367241
2180,4351237.853215269
2181,35179673.26801933
2,3, 1, 3, 0,16, 0.00,60.00,Tuesday
7,17.416666666666669
2176,6740916.8065603
2177,48664046.49149509
2178,4881718.146280864
2179,35994165.68961285
2180,4224181.3937537469
2181,32776700.57456218
2,3, 1, 3, 0,17, 0.00,60.00,Tuesday
7,14.666666666666666
2176,7521223.092568166
2177,13670194.543818675
2178,4555742.193798906
2179,9117439.093569464
2180,3913503.1770038048
2181,8463467.750325544
2,3, 1, 3, 0,18, 0.00,60.00,Tuesday
7,13.0
2176,7498725.29954467
2177,0.0
2178,3051404.5689611865
2179,0.0
2180,2983447.012054806
2181,0.0
2,3, 1, 3, 0,19, 0.00,60.00,Tuesday
7,11.833333333333334
2176,3544862.2875155669
2177,0.0
2178,3018725.678658484
2179,0.0
2180,2976070.31549063
2181,0.0
2,3, 1, 3, 0,20, 0.00,60.00,Tuesday
7,11.583333333333334
2176,3506648.3233657216
2177,0.0
2178,3018725.6786584847
2179,0.0
2180,2976070.315490632
2181,0.0
2,3, 1, 3, 0,21, 0.00,60.00,Tuesday
7,10.833333333333334
2176,3506648.3233657137
2177,0.0
2178,3018725.6786584875
2179,0.0
2180,3263714.5535125026
2181,0.0
2,3, 1, 3, 0,22, 0.00,60.00,Tuesday
7,8.833333333333334
2176,4633688.553250818
2177,0.0
2178,4993259.517077304
2179,0.0
2180,9095485.004675053
2181,0.0
2,3, 1, 3, 0,23, 0.00,60.00,Tuesday
7,9.75
2176,0.0
2177,0.0
2178,0.0
2179,0.0
2180,0.0
2181,0.0
2,3, 1, 3, 0,24, 0.00,60.00,Tuesday
7,9.25
2176,0.0
2177,0.0
2178,0.0
2179,0.0
2180,0.0
2181,0.0
2,4, 1, 4, 0, 1, 0.00,60.00,Wednesday
7,8.0
2176,0.0
2177,0.0
2178,0.0
2179,0.0
2180,0.0
2181,0.0
2,4, 1, 4, 0, 2, 0.00,60.00,Wednesday
7,8.583333333333334
2176,0.0
2177,0.0
2178,0.0
2179,0.0
2180,0.0
2181,0.0
2,4, 1, 4, 0, 3, 0.00,60.00,Wednesday
7,10.166666666666666
2176,0.0
2177,0.0
2178,0.0
2179,0.0
2180,0.0
2181,0.0
2,4, 1, 4, 0, 4, 0.00,60.00,Wednesday
7,9.25
2176,0.0
2177,0.0
2178,0.0
2179,0.0
2180,0.0
2181,0.0
2,4, 1, 4, 0, 5, 0.00,60.00,Wednesday
7,6.25
2176,0.0
2177,0.0
2178,0.0
2179,0.0
2180,0.0
2181,0.0
2,4, 1, 4, 0, 6, 0.00,60.00,Wednesday
7,6.166666666666667
2176,0.0
2177,0.0
2178,0.0
2179,0.0
2180,0.0
2181,0.0
2,4, 1, 4, 0, 7, 0.00,60.00,Wednesday
7,7.583333333333333
2176,8569414.294175229
2177,0.0
2178,9933048.564926627
2179,0.0
2180,17602820.40819152
2181,0.0
2,4, 1, 4, 0, 8, 0.00,60.00,Wednesday
7,10.333333333333334
2176,20114971.833989189
2177,0.0
2178,3871530.5099668914
2179,0.0
2180,15403249.686679654
2181,0.0
2,4, 1, 4, 0, 9, 0.00,60.00,Wednesday
7,13.166666666666666
2176,8259407.528412546
2177,0.0
2178,3435249.3461543417
2179,0.0
2180,3027764.0283394709
2181,0.0
2,4, 1, 4, 0,10, 0.00,60.00,Wednesday
7,15.75
2176,6637056.883601409
2177,24830534.822119167
2178,4158842.7859716189
2179,16434186.310185213
2180,3455165.02159351
2181,14148175.63984025
2,4, 1, 4, 0,11, 0.00,60.00,Wednesday
7,17.583333333333333
2176,6568664.342992118
2177,50073525.96952284
2178,4403246.281895648
2179,35004556.80162721
2180,3859814.0763380278
2181,31886019.378213198
2,4, 1, 4, 0,12, 0.00,60.00,Wednesday
7,18.583333333333333
2176,7248380.954403639
2177,68146349.98148413
2178,5007891.582385013
2179,48915905.685553979
2180,4191400.0349401778
2181,43596923.2175343
2,4, 1, 4, 0,13, 0.00,60.00,Wednesday
7,19.0
2176,6608753.830896508
2177,70197768.05516157
2178,4380073.220862473
2179,48782470.45000448
2180,4286394.9186336309
2181,48414818.95376778
2,4, 1, 4, 0,14, 0.00,60.00,Wednesday
7,19.583333333333333
2176,8188955.087015011
2177,89247180.37574627
2178,5532670.700556777
2179,63527562.246435578
2180,4710863.6432714839
2181,57876751.503534588
2,4, 1, 4, 0,15, 0.00,60.00,Wednesday
7,19.416666666666669
2176,7819615.629630787
2177,84305141.4902371
2178,5929920.460438911
2179,64203327.31295346
2180,5394873.22656511
2181,61293746.00011645
2,4, 1, 4, 0,16, 0.00,60.00,Wednesday
7,18.416666666666669
2176,8052701.129476039
2177,70112742.2413116
2178,6320230.236870857
2179,54619370.28125204
2180,5483527.827258108
2181,50663265.148914027
2,4, 1, 4, 0,17, 0.00,60.00,Wednesday
7,16.833333333333333
2176,8650677.984883462
2177,47270233.485971499
2178,5716640.971605457
2179,33252808.65307415
2180,4923581.899383459
2181,30646855.725423088
2,4, 1, 4, 0,18, 0.00,60.00,Wednesday
7,15.416666666666666
2176,6787698.846927963
2177,20651065.678656099
2178,3186682.3747313905
2179,11805462.591073867
2180,3061218.2776164717
2181,11553536.451586752
2,4, 1, 4, 0,19, 0.00,60.00,Wednesday
7,14.416666666666666
2176,3771349.40480702
2177,3952138.8049367715
2178,3018725.678658492
2179,3114232.087436106
2180,2976070.315490639
2181,3106824.681223697
2,4, 1, 4, 0,20, 0.00,60.00,Wednesday
7,11.666666666666666
2176,3518484.0888320577
2177,0.0
2178,3018725.678658484
2179,0.0
2180,2976070.3154906325
2181,0.0
2,4, 1, 4, 0,21, 0.00,60.00,Wednesday
7,10.583333333333334
2176,3506648.323365707
2177,0.0
2178,3018725.6786584805
2179,0.0
2180,2976070.3154906325
2181,0.0
2,4, 1, 4, 0,22, 0.00,60.00,Wednesday
7,10.416666666666666
2176,3506648.323365723
2177,0.0
2178,3018725.6786584847
2179,0.0
2180,3178845.3870821909
2181,0.0
2,4, 1, 4, 0,23, 0.00,60.00,Wednesday
7,11.166666666666666
2176,0.0
2177,0.0
2178,0.0
2179,0.0
2180,0.0
2181,0.0
2,4, 1, 4, 0,24, 0.00,60.00,Wednesday
7,9.666666666666666
2176,0.0
2177,0.0
2178,0.0
2179,0.0
2180,0.0
2181,0.0
2,5, 1, 5, 0, 1, 0.00,60.00,Thursday
7,8.583333333333334
2176,0.0
2177,0.0
2178,0.0
2179,0.0
2180,0.0
2181,0.0
2,5, 1, 5, 0, 2, 0.00,60.00,Thursday
7,7.833333333333333
2176,0.0
2177,0.0
2178,0.0
2179,0.0
2180,0.0
2181,0.0
2,5, 1, 5, 0, 3, 0.00,60.00,Thursday
7,6.416666666666667
2176,0.0
2177,0.0
2178,0.0
2179,0.0
2180,0.0
2181,0.0
2,5, 1, 5, 0, 4, 0.00,60.00,Thursday
7,6.583333333333333
2176,0.0
2177,0.0
2178,0.0
2179,0.0
2180,0.0
2181,0.0
2,5, 1, 5, 0, 5, 0.00,60.00,Thursday
7,7.0
2176,0.0
2177,0.0
2178,0.0
2179,0.0
2180,0.0
2181,0.0
2,5, 1, 5, 0, 6, 0.00,60.00,Thursday
7,7.583333333333333
2176,0.0
2177,0.0
2178,0.0
2179,0.0
2180,0.0
2181,0.0
2,5, 1, 5, 0, 7, 0.00,60.00,Thursday
7,6.25
2176,8550411.83811432
2177,266413.8031772972
2178,12964578.372127675
2179,0.0
2180,20548327.478655489
2181,0.0
2,5, 1, 5, 0, 8, 0.00,60.00,Thursday
7,7.333333333333333
2176,21262866.51032251
2177,233805.61142937517
2178,9838652.471333804
2179,0.0
2180,22413131.30674208
2181,0.0
2,5, 1, 5, 0, 9, 0.00,60.00,Thursday
7,11.333333333333334
2176,10171490.114401048
2177,0.0
2178,3758539.7565765685
2179,0.0
2180,4337603.355953992
2181,0.0
2,5, 1, 5, 0,10, 0.00,60.00,Thursday
7,14.75
2176,7723610.183763826
2177,13194913.665107813
2178,5031286.359533686
2179,9108948.33238112
2180,3547921.0521161167
2181,6950490.801604575
2,5, 1, 5, 0,11, 0.00,60.00,Thursday
7,16.583333333333333
2176,7579479.799157357
2177,39725011.904942598
2178,5219367.773841886
2179,28410121.15481562
2180,3979264.2993696054
2181,23533559.181146556
2,5, 1, 5, 0,12, 0.00,60.00,Thursday
7,17.525000000000003
2176,8348228.434688271
2177,57379097.444698069
2178,5781843.284525212
2179,41380904.02474434
2180,4456456.923296848
2181,35181746.93834217
2,5, 1, 5, 0,13, 0.00,60.00,Thursday
7,17.958333333333333
2176,7242913.146627067
2177,59083966.26713225
2178,4957804.023111373
2179,42356402.68367692
2180,4470328.562097562
2181,40897811.66667104
2,5, 1, 5, 0,14, 0.00,60.00,Thursday
7,17.416666666666669
2176,9726882.480288702
2177,61420108.364710498
2178,6574184.915593205
2179,43918067.949470859
2180,5740728.324203784
2181,42187473.348769869
2,5, 1, 5, 0,15, 0.00,60.00,Thursday
7,16.591666666666666
2176,9350646.69499074
2177,50141405.1708636
2178,7117991.040173236
2179,37904787.64131437
2180,6478968.521202121
2181,37097506.16859471
2,5, 1, 5, 0,16, 0.00,60.00,Thursday
7,15.483333333333335
2176,9698758.955261145
2177,34003946.71034668
2178,7825201.455593285
2179,26679068.1713609
2180,6573655.695242619
2181,24655567.569277377
2,5, 1, 5, 0,17, 0.00,60.00,Thursday
7,13.791666666666666
2176,10613187.023683345
2177,4491911.687422026
2178,7197153.968906906
2179,3203615.26876414
2180,5905724.824066366
2181,2715602.4803431818
2,5, 1, 5, 0,18, 0.00,60.00,Thursday
7,12.416666666666666
2176,8296175.633640766
2177,0.0
2178,3510274.8475998758
2179,0.0
2180,3107832.4692407806
2181,0.0
2,5, 1, 5, 0,19, 0.00,60.00,Thursday
7,11.416666666666666
2176,4193710.391346175
2177,0.0
2178,3024324.566494193
2179,0.0
2180,2976070.3154906446
2181,0.0
2,5, 1, 5, 0,20, 0.00,60.00,Thursday
7,10.416666666666666
2176,3750707.676832736
2177,0.0
2178,3018725.6786584847
2179,0.0
2180,2976070.3154906325
2181,0.0
2,5, 1, 5, 0,21, 0.00,60.00,Thursday
7,9.416666666666666
2176,3610326.7815822616
2177,0.0
2178,3018725.6786584837
2179,0.0
2180,4666577.709722174
2181,0.0
2,5, 1, 5, 0,22, 0.00,60.00,Thursday
7,10.166666666666666
2176,3506648.3233657239
2177,0.0
2178,3018725.6786584735
2179,0.0
2180,3753105.8116019337
2181,0.0
2,5, 1, 5, 0,23, 0.00,60.00,Thursday
7,9.833333333333334
2176,0.0
2177,0.0
2178,0.0
2179,0.0
2180,0.0
2181,0.0
2,5, 1, 5, 0,24, 0.00,60.00,Thursday
7,7.25
2176,0.0
2177,0.0
2178,0.0
2179,0.0
2180,0.0
2181,0.0
2,6, 1, 6, 0, 1, 0.00,60.00,Friday
7,6.583333333333333
2176,0.0
2177,0.0
2178,0.0
2179,0.0
2180,0.0
2181,0.0
2,6, 1, 6, 0, 2, 0.00,60.00,Friday
7,7.583333333333333
2176,0.0
2177,0.0
2178,0.0
2179,0.0
2180,0.0
2181,0.0
2,6, 1, 6, 0, 3, 0.00,60.00,Friday
7,8.0
2176,0.0
2177,0.0
2178,0.0
2179,0.0
2180,0.0
2181,0.0
2,6, 1, 6, 0, 4, 0.00,60.00,Friday
7,10.333333333333334
2176,0.0
2177,0.0
2178,0.0
2179,0.0
2180,0.0
2181,0.0
2,6, 1, 6, 0, 5, 0.00,60.00,Friday
7,9.666666666666666
2176,0.0
2177,0.0
2178,0.0
2179,0.0
2180,0.0
2181,0.0
2,6, 1, 6, 0, 6, 0.00,60.00,Friday
7,8.583333333333334
2176,0.0
2177,0.0
2178,0.0
2179,0.0
2180,0.0
2181,0.0
2,6, 1, 6, 0, 7, 0.00,60.00,Friday
7,9.0
2176,3629916.209199342
2177,0.0
2178,3115729.74941171
2179,0.0
2180,10842297.495837596
2181,0.0
2,6, 1, 6, 0, 8, 0.00,60.00,Friday
7,9.0
2176,20629233.736481254
2177,0.0
2178,3809402.7868288618
2179,0.0
2180,12721091.849897646
2181,0.0
2,6, 1, 6, 0, 9, 0.00,60.00,Friday
7,11.333333333333334
2176,10705914.526988797
2177,0.0
2178,4168210.7047725177
2179,0.0
2180,4187745.0050251877
2181,0.0
2,6, 1, 6, 0,10, 0.00,60.00,Friday
7,15.333333333333334
2176,8077219.261929367
2177,22348941.807548476
2178,5291871.285031637
2179,15550189.31454159
2180,3549908.6241230487
2181,11620878.71090269
2,6, 1, 6, 0,11, 0.00,60.00,Friday
7,17.583333333333333
2176,7862238.971073365
2177,55981401.777847219
2178,5477407.575900361
2179,40470168.11206915
2180,4035514.708771428
2181,32993297.344107968
2,6, 1, 6, 0,12, 0.00,60.00,Friday
7,18.583333333333333
2176,8620025.449274078
2177,75371905.95646355
2178,6029419.722484507
2179,54811201.63392028
2180,4655062.831521453
2181,46952786.18510553
2,6, 1, 6, 0,13, 0.00,60.00,Friday
7,19.0
2176,7726171.480202459
2177,77088009.81342668
2178,5171937.961225547
2179,54400355.47404067
2180,4593319.120860408
2181,50734560.90514317
2,6, 1, 6, 0,14, 0.00,60.00,Friday
7,19.0
2176,9937938.391634316
2177,88901690.88836584
2178,6787551.521978799
2179,63964226.923875559
2180,5983879.516456689
2181,60146218.63094273
2,6, 1, 6, 0,15, 0.00,60.00,Friday
7,18.416666666666669
2176,9576365.120093683
2177,77114077.72695197
2178,7395380.681019834
2179,59323610.96662878
2180,6824485.533701625
2181,57483124.44471442
2,6, 1, 6, 0,16, 0.00,60.00,Friday
7,17.416666666666669
2176,9846707.31542472
2177,61120020.01291584
2178,8164333.376106953
2179,49156089.743644889
2180,6805371.326283526
2181,44793044.45922288
2,6, 1, 6, 0,17, 0.00,60.00,Friday
7,15.833333333333334
2176,10563760.304962866
2177,35148205.01972438
2178,7355549.649673022
2179,25550563.736561255
2180,6039516.451969105
2181,22843626.18989514
2,6, 1, 6, 0,18, 0.00,60.00,Friday
7,11.5
2176,11952637.992013159
2177,0.0
2178,3776322.331541595
2179,0.0
2180,3202577.458308382
2181,0.0
2,6, 1, 6, 0,19, 0.00,60.00,Friday
7,9.583333333333334
2176,4502132.395632739
2177,0.0
2178,3027011.699073499
2179,0.0
2180,2976070.3154906339
2181,0.0
2,6, 1, 6, 0,20, 0.00,60.00,Friday
7,9.416666666666666
2176,3901017.1745445348
2177,0.0
2178,3018725.6786584875
2179,0.0
2180,3966870.633563116
2181,0.0
2,6, 1, 6, 0,21, 0.00,60.00,Friday
7,9.0
2176,3714017.3900928015
2177,0.0
2178,3018725.6786584809
2179,0.0
2180,6346999.841654167
2181,0.0
2,6, 1, 6, 0,22, 0.00,60.00,Friday
7,9.583333333333334
2176,3508868.051256094
2177,0.0
2178,3018725.6786584875
2179,0.0
2180,5328511.250255394
2181,0.0
2,6, 1, 6, 0,23, 0.00,60.00,Friday
7,7.083333333333333
2176,0.0
2177,0.0
2178,0.0
2179,0.0
2180,0.0
2181,0.0
2,6, 1, 6, 0,24, 0.00,60.00,Friday
7,6.166666666666667
2176,0.0
2177,0.0
2178,0.0
2179,0.0
2180,0.0
2181,0.0
2,7, 1, 7, 0, 1, 0.00,60.00,Saturday
7,6.416666666666667
2176,0.0
2177,0.0
2178,0.0
2179,0.0
2180,0.0
2181,0.0
2,7, 1, 7, 0, 2, 0.00,60.00,Saturday
7,4.833333333333333
2176,0.0
2177,0.0
2178,0.0
2179,0.0
2180,0.0
2181,0.0
2,7, 1, 7, 0, 3, 0.00,60.00,Saturday
7,6.916666666666667
2176,0.0
2177,0.0
2178,0.0
2179,0.0
2180,0.0
2181,0.0
2,7, 1, 7, 0, 4, 0.00,60.00,Saturday
7,10.166666666666666
2176,0.0
2177,0.0
2178,0.0
2179,0.0
2180,0.0
2181,0.0
2,7, 1, 7, 0, 5, 0.00,60.00,Saturday
7,8.083333333333334
2176,0.0
2177,0.0
2178,0.0
2179,0.0
2180,0.0
2181,0.0
2,7, 1, 7, 0, 6, 0.00,60.00,Saturday
7,7.75
2176,0.0
2177,0.0
2178,0.0
2179,0.0
2180,0.0
2181,0.0
2,7, 1, 7, 0, 7, 0.00,60.00,Saturday
7,7.25
2176,7436751.542926432
2177,217048.20921218309
2178,9446096.206559478
2179,0.0
2180,17455934.16443545
2181,0.0
2,7, 1, 7, 0, 8, 0.00,60.00,Saturday
7,7.75
2176,4200980.8560726619
2177,219643.40369646316
2178,8399034.548873872
2179,0.0
2180,20555519.543346667
2181,0.0
2,7, 1, 7, 0, 9, 0.00,60.00,Saturday
7,12.5
2176,3813854.0907538135
2177,1394081.2871044188
2178,3062836.431461933
2179,1178982.3582548858
2180,4285045.306808838
2181,1114481.5780980818
2,7, 1, 7, 0,10, 0.00,60.00,Saturday
7,16.75
2176,3975158.8543250497
2177,25669761.159125087
2178,3354819.726369807
2179,21589184.272273125
2180,2993975.630538799
2181,19170906.53838715
2,7, 1, 7, 0,11, 0.00,60.00,Saturday
7,19.166666666666669
2176,3979680.588134676
2177,48673529.06554397
2178,3476203.4164120994
2179,42028292.12692033
2180,3250291.293220923
2181,39593756.05527476
2,7, 1, 7, 0,12, 0.00,60.00,Saturday
7,19.941666666666668
2176,4363600.875699874
2177,61215270.84124239
2178,3901957.062389112
2179,53183383.68809067
2180,3545493.422813086
2181,49367010.71863687
2,7, 1, 7, 0,13, 0.00,60.00,Saturday
7,19.375
2176,3898243.101035141
2177,50243660.5865503
2178,3519309.6469930598
2179,44338984.23658671
2180,3470224.151626526
2181,44013903.52628953
2,7, 1, 7, 0,14, 0.00,60.00,Saturday
7,17.833333333333333
2176,3557165.4986442758
2177,37669044.5318003
2178,3469454.3847587436
2179,34344572.59507235
2180,3255518.524959248
2181,33321277.347734088
2,7, 1, 7, 0,15, 0.00,60.00,Saturday
7,15.833333333333334
2176,3506648.3233657169
2177,20220918.205256475
2178,3348544.269422479
2179,18591109.88056124
2180,3328156.886199789
2181,18691279.074373284
2,7, 1, 7, 0,16, 0.00,60.00,Saturday
7,14.416666666666666
2176,3506648.3233657164
2177,4736658.3043622779
2178,3547651.1798487466
2179,4669534.885583973
2180,3238704.8195286018
2181,4331554.014380369
2,7, 1, 7, 0,17, 0.00,60.00,Saturday
7,13.416666666666666
2176,3506648.3233657248
2177,0.0
2178,3127376.599109896
2179,0.0
2180,2990295.4003843499
2181,0.0
2,7, 1, 7, 0,18, 0.00,60.00,Saturday
7,12.416666666666666
2176,3506648.323365723
2177,0.0
2178,3018725.678658477
2179,0.0
2180,2976070.3154906427
2181,0.0
2,7, 1, 7, 0,19, 0.00,60.00,Saturday
7,11.416666666666666
2176,0.0
2177,0.0
2178,0.0
2179,0.0
2180,0.0
2181,0.0
2,7, 1, 7, 0,20, 0.00,60.00,Saturday
7,10.416666666666666
2176,0.0
2177,0.0
2178,0.0
2179,0.0
2180,0.0
2181,0.0
2,7, 1, 7, 0,21, 0.00,60.00,Saturday
7,8.833333333333334
2176,0.0
2177,0.0
2178,0.0
2179,0.0
2180,0.0
2181,0.0
2,7, 1, 7, 0,22, 0.00,60.00,Saturday
7,8.0
2176,0.0
2177,0.0
2178,0.0
2179,0.0
2180,0.0
2181,0.0
2,7, 1, 7, 0,23, 0.00,60.00,Saturday
7,8.0
2176,0.0
2177,0.0
2178,0.0
2179,0.0
2180,0.0
2181,0.0
2,7, 1, 7, 0,24, 0.00,60.00,Saturday
7,6.833333333333333
2176,0.0
2177,0.0
2178,0.0
2179,0.0
2180,0.0
2181,0.0
2,8, 1, 8, 0, 1, 0.00,60.00,Sunday
7,6.0
2176,0.0
2177,0.0
2178,0.0
2179,0.0
2180,0.0
2181,0.0
2,8, 1, 8, 0, 2, 0.00,60.00,Sunday
7,6.583333333333333
2176,0.0
2177,0.0
2178,0.0
2179,0.0
2180,0.0
2181,0.0
2,8, 1, 8, 0, 3, 0.00,60.00,Sunday
7,5.833333333333333
2176,0.0
2177,0.0
2178,0.0
2179,0.0
2180,0.0
2181,0.0
2,8, 1, 8, 0, 4, 0.00,60.00,Sunday
7,4.416666666666667
2176,0.0
2177,0.0
2178,0.0
2179,0.0
2180,0.0
2181,0.0
2,8, 1, 8, 0, 5, 0.00,60.00,Sunday
7,3.4166666666666667
2176,0.0
2177,0.0
2178,0.0
2179,0.0
2180,0.0
2181,0.0
2,8, 1, 8, 0, 6, 0.00,60.00,Sunday
7,3.0
2176,0.0
2177,0.0
2178,0.0
2179,0.0
2180,0.0
2181,0.0
2,8, 1, 8, 0, 7, 0.00,60.00,Sunday
7,1.8333333333333333
2176,0.0
2177,0.0
2178,0.0
2179,0.0
2180,0.0
2181,0.0
2,8, 1, 8, 0, 8, 0.00,60.00,Sunday
7,3.9166666666666667
2176,0.0
2177,0.0
2178,0.0
2179,0.0
2180,0.0
2181,0.0
2,8, 1, 8, 0, 9, 0.00,60.00,Sunday
7,8.333333333333334
2176,0.0
2177,0.0
2178,0.0
2179,0.0
2180,0.0
2181,0.0
2,8, 1, 8, 0,10, 0.00,60.00,Sunday
7,11.75
2176,0.0
2177,0.0
2178,0.0
2179,0.0
2180,0.0
2181,0.0
2,8, 1, 8, 0,11, 0.00,60.00,Sunday
7,14.75
2176,0.0
2177,0.0
2178,519148.58112972098
2179,2481831.787481968
2180,0.0
2181,0.0
2,8, 1, 8, 0,12, 0.00,60.00,Sunday
7,16.583333333333333
2176,2532579.3446530208
2177,14099143.379110855
2178,2561113.02193149
2179,15899964.0514044
2180,0.0
2181,0.0
2,8, 1, 8, 0,13, 0.00,60.00,Sunday
7,17.0
2176,2337765.5489104797
2177,16399714.207628316
2178,2143307.364549417
2179,16230727.56933106
2180,2025693.1410946104
2181,15366616.067185654
2,8, 1, 8, 0,14, 0.00,60.00,Sunday
7,17.0
2176,2922206.9361380969
2177,21025161.31616347
2178,2589837.807171666
2179,20884926.926458077
2180,2008763.6733450245
2181,16498358.338168908
2,8, 1, 8, 0,15, 0.00,60.00,Sunday
7,16.416666666666669
2176,2337765.5489104797
2177,13743592.258737367
2178,2015519.1886049654
2179,13200737.434659053
2180,1339167.3807571047
2181,9574391.92802462
2,8, 1, 8, 0,16, 0.00,60.00,Sunday
7,14.833333333333334
2176,0.0
2177,0.0
2178,1006241.8928861632
2179,4389380.430301167
2180,0.0
2181,0.0
2,8, 1, 8, 0,17, 0.00,60.00,Sunday
7,12.833333333333334
2176,0.0
2177,0.0
2178,0.0
2179,0.0
2180,0.0
2181,0.0
2,8, 1, 8, 0,18, 0.00,60.00,Sunday
7,11.416666666666666
2176,0.0
2177,0.0
2178,0.0
2179,0.0
2180,0.0
2181,0.0
2,8, 1, 8, 0,19, 0.00,60.00,Sunday
7,9.833333333333334
2176,0.0
2177,0.0
2178,0.0
2179,0.0
2180,0.0
2181,0.0
2,8, 1, 8, 0,20, 0.00,60.00,Sunday
7,9.0
2176,0.0
2177,0.0
2178,0.0
2179,0.0
2180,0.0
2181,0.0
2,8, 1, 8, 0,21, 0.00,60.00,Sunday
7,9.0
2176,0.0
2177,0.0
2178,0.0
2179,0.0
2180,0.0
2181,0.0
2,8, 1, 8, 0,22, 0.00,60.00,Sunday
7,8.825000000000001
2176,0.0
2177,0.0
2178,0.0
2179,0.0
2180,0.0
2181,0.0
2,8, 1, 8, 0,23, 0.00,60.00,Sunday
7,8.525
2176,0.0
2177,0.0
2178,0.0
2179,0.0
2180,0.0
2181,0.0
2,8, 1, 8, 0,24, 0.00,60.00,Sunday
7,8.166666666666666
2176,0.0
2177,0.0
2178,0.0
2179,0.0
2180,0.0
2181,0.0
2,9, 1, 9, 0, 1, 0.00,60.00,Monday
7,6.25
2176,0.0
2177,0.0
2178,0.0
2179,0.0
2180,0.0
2181,0.0
2,9, 1, 9, 0, 2, 0.00,60.00,Monday
7,5.583333333333333
2176,0.0
2177,0.0
2178,0.0
2179,0.0
2180,0.0
2181,0.0
2,9, 1, 9, 0, 3, 0.00,60.00,Monday
7,4.833333333333333
2176,0.0
2177,0.0
2178,0.0
2179,0.0
2180,0.0
2181,0.0
2,9, 1, 9, 0, 4, 0.00,60.00,Monday
7,4.583333333333333
2176,0.0
2177,0.0
2178,0.0
2179,0.0
2180,0.0
2181,0.0
2,9, 1, 9, 0, 5, 0.00,60.00,Monday
7,5.583333333333333
2176,0.0
2177,0.0
2178,0.0
2179,0.0
2180,0.0
2181,0.0
2,9, 1, 9, 0, 6, 0.00,60.00,Monday