Program Version,EnergyPlus, Version 9.0.1-bb7ca4f0da, YMD=2022.04.26 19:50
1,5,Environment Title[],Latitude[deg],Longitude[deg],Time Zone[],Elevation[m]
2,8,Day of Simulation[],Month[],Day of Month[],DST Indicator[1=yes 0=no],Hour[],StartMinute[],EndMinute[],DayType
3,5,Cumulative Day of Simulation[],Month[],Day of Month[],DST Indicator[1=yes 0=no],DayType  ! When Daily Meters Requested
4,2,Cumulative Days of Simulation[],Month[]  ! When Monthly Meters Requested
5,1,Cumulative Days of Simulation[] ! When Run Period Meters Requested
6,1,Calendar Year of Simulation[] ! When Annual Meters Requested
25,1,Electricity:Facility [J] !Hourly
1870,1,ElectricityNet:Facility [J] !Hourly
757,1,Gas:Facility [J] !Hourly
End of Data Dictionary
1,RUNPERIOD 1,  32.58,-116.98,  -8.00, 159.00
2,1, 1, 1, 0, 1, 0.00,60.00,Holiday
25,46359074.93593144
757,6791184.0
1870,46359074.93593143
2,1, 1, 1, 0, 2, 0.00,60.00,Holiday
25,46359235.70955593
757,6791184.0
1870,46359235.709555927
2,1, 1, 1, 0, 3, 0.00,60.00,Holiday
25,46359235.70955593
757,6791184.0
1870,46359235.709555927
2,1, 1, 1, 0, 4, 0.00,60.00,Holiday
25,46359235.70955593
757,6791184.0
1870,46359235.709555927
2,1, 1, 1, 0, 5, 0.00,60.00,Holiday
25,46359235.70955593
757,6791184.0
1870,46359235.709555927
2,1, 1, 1, 0, 6, 0.00,60.00,Holiday
25,46359235.70955593
757,6791184.0
1870,46359235.709555927
2,1, 1, 1, 0, 7, 0.00,60.00,Holiday
25,67999793.73504217
757,6791184.0
1870,67999793.73504217
2,1, 1, 1, 0, 8, 0.00,60.00,Holiday
25,51993009.67500861
757,6791184.0
1870,51993009.67500862
2,1, 1, 1, 0, 9, 0.00,60.00,Holiday
25,51295144.73008116
757,6791184.0
1870,51295144.73008116
2,1, 1, 1, 0,10, 0.00,60.00,Holiday
25,51225215.94133289
757,6791184.0
1870,51225215.94133289
2,1, 1, 1, 0,11, 0.00,60.00,Holiday
25,51321818.05309343
757,6791184.0
1870,51321818.05309342
2,1, 1, 1, 0,12, 0.00,60.00,Holiday
25,51238402.10169476
757,6791184.0
1870,51238402.10169476
2,1, 1, 1, 0,13, 0.00,60.00,Holiday
25,51225215.94133289
757,6791184.0
1870,51225215.94133289
2,1, 1, 1, 0,14, 0.00,60.00,Holiday
25,51225215.94133289
757,6791184.0
1870,51225215.94133289
2,1, 1, 1, 0,15, 0.00,60.00,Holiday
25,51243152.26273751
757,6791184.0
1870,51243152.26273751
2,1, 1, 1, 0,16, 0.00,60.00,Holiday
25,51388364.9474128
757,6791184.0
1870,51388364.9474128
2,1, 1, 1, 0,17, 0.00,60.00,Holiday
25,59140619.33795165
757,6791184.0
1870,59140619.33795166
2,1, 1, 1, 0,18, 0.00,60.00,Holiday
25,72551231.83277507
757,6791184.0
1870,72551231.83277507
2,1, 1, 1, 0,19, 0.00,60.00,Holiday
25,58318671.4242602
757,6791184.0
1870,58318671.4242602
2,1, 1, 1, 0,20, 0.00,60.00,Holiday
25,48904615.70955593
757,6791184.0
1870,48904615.70955593
2,1, 1, 1, 0,21, 0.00,60.00,Holiday
25,48904615.70955593
757,6791184.0
1870,48904615.70955593
2,1, 1, 1, 0,22, 0.00,60.00,Holiday
25,48904615.70955593
757,6791184.0
1870,48904615.70955593
2,1, 1, 1, 0,23, 0.00,60.00,Holiday
25,48904615.70955593
757,6791184.0
1870,48904615.70955593
2,1, 1, 1, 0,24, 0.00,60.00,Holiday
25,48904615.70955593
757,6791184.0
1870,48904615.70955593
2,2, 1, 2, 0, 1, 0.00,60.00,Monday
25,57609860.1137362
757,6791184.0
1870,57609860.1137362
2,2, 1, 2, 0, 2, 0.00,60.00,Monday
25,57609860.1137362
757,6791184.0
1870,57609860.1137362
2,2, 1, 2, 0, 3, 0.00,60.00,Monday
25,57609860.1137362
757,6791184.0
1870,57609860.1137362
2,2, 1, 2, 0, 4, 0.00,60.00,Monday
25,57609860.1137362
757,6791184.0
1870,57609860.1137362
2,2, 1, 2, 0, 5, 0.00,60.00,Monday
25,57609860.1137362
757,6791184.0
1870,57609860.1137362
2,2, 1, 2, 0, 6, 0.00,60.00,Monday
25,57609860.1137362
757,6791184.0
1870,57609860.1137362
2,2, 1, 2, 0, 7, 0.00,60.00,Monday
25,117863293.98401395
757,9912148.300147305
1870,117863293.98401395
2,2, 1, 2, 0, 8, 0.00,60.00,Monday
25,244269413.58783213
757,8323392.746825068
1870,244269413.58783213
2,2, 1, 2, 0, 9, 0.00,60.00,Monday
25,390191004.39124438
757,6791184.0
1870,390191004.3912443
2,2, 1, 2, 0,10, 0.00,60.00,Monday
25,352015775.28269627
757,6791184.0
1870,352015775.2826962
2,2, 1, 2, 0,11, 0.00,60.00,Monday
25,348012536.061939
757,6791184.0
1870,348012536.061939
2,2, 1, 2, 0,12, 0.00,60.00,Monday
25,357516311.04113009
757,11367862.331276153
1870,357516311.04113009
2,2, 1, 2, 0,13, 0.00,60.00,Monday
25,357209563.5335032
757,25841436.26225585
1870,357209563.5335032
2,2, 1, 2, 0,14, 0.00,60.00,Monday
25,361016219.9909636
757,25620224.990911746
1870,361016219.9909636
2,2, 1, 2, 0,15, 0.00,60.00,Monday
25,347883782.4519221
757,15519373.093254256
1870,347883782.4519222
2,2, 1, 2, 0,16, 0.00,60.00,Monday
25,349874818.1366427
757,15487365.70901943
1870,349874818.13664266
2,2, 1, 2, 0,17, 0.00,60.00,Monday
25,391880196.3161021
757,20388020.38463866
1870,391880196.3161021
2,2, 1, 2, 0,18, 0.00,60.00,Monday
25,302104572.32976487
757,11927089.258343418
1870,302104572.32976487
2,2, 1, 2, 0,19, 0.00,60.00,Monday
25,167989013.78780253
757,17231297.27654911
1870,167989013.78780253
2,2, 1, 2, 0,20, 0.00,60.00,Monday
25,151450400.9479767
757,30476811.07856797
1870,151450400.9479767
2,2, 1, 2, 0,21, 0.00,60.00,Monday
25,131437495.95032926
757,46315669.576124209
1870,131437495.95032922
2,2, 1, 2, 0,22, 0.00,60.00,Monday
25,129457717.82978082
757,46342942.08815342
1870,129457717.82978079
2,2, 1, 2, 0,23, 0.00,60.00,Monday
25,90323952.76734039
757,6791184.0
1870,90323952.76734039
2,2, 1, 2, 0,24, 0.00,60.00,Monday
25,78718034.42393798
757,6791184.0
1870,78718034.42393798
2,3, 1, 3, 0, 1, 0.00,60.00,Tuesday
25,59209304.021005768
757,6791184.0
1870,59209304.021005768
2,3, 1, 3, 0, 2, 0.00,60.00,Tuesday
25,57609860.1137362
757,6791184.0
1870,57609860.1137362
2,3, 1, 3, 0, 3, 0.00,60.00,Tuesday
25,57609860.1137362
757,6791184.0
1870,57609860.1137362
2,3, 1, 3, 0, 4, 0.00,60.00,Tuesday
25,57609860.1137362
757,6791184.0
1870,57609860.1137362
2,3, 1, 3, 0, 5, 0.00,60.00,Tuesday
25,57609860.1137362
757,6791184.0
1870,57609860.1137362
2,3, 1, 3, 0, 6, 0.00,60.00,Tuesday
25,57609860.1137362
757,6791184.0
1870,57609860.1137362
2,3, 1, 3, 0, 7, 0.00,60.00,Tuesday
25,120644192.85067593
757,64335354.52975703
1870,120644192.8506759
2,3, 1, 3, 0, 8, 0.00,60.00,Tuesday
25,224192442.95594243
757,58451785.04276702
1870,224192442.9559424
2,3, 1, 3, 0, 9, 0.00,60.00,Tuesday
25,390200950.16651156
757,20376755.883816456
1870,390200950.16651156
2,3, 1, 3, 0,10, 0.00,60.00,Tuesday
25,353938816.5261592
757,6791184.0
1870,353938816.52615919
2,3, 1, 3, 0,11, 0.00,60.00,Tuesday
25,350145205.45602878
757,6791184.0
1870,350145205.4560287
2,3, 1, 3, 0,12, 0.00,60.00,Tuesday
25,378889007.3930437
757,15946659.390497204
1870,378889007.39304366
2,3, 1, 3, 0,13, 0.00,60.00,Tuesday
25,394373666.0787303
757,25838913.688783394
1870,394373666.0787303
2,3, 1, 3, 0,14, 0.00,60.00,Tuesday
25,396788218.627605
757,25617999.148653896
1870,396788218.627605
2,3, 1, 3, 0,15, 0.00,60.00,Tuesday
25,381760017.162148
757,15517261.431975432
1870,381760017.162148
2,3, 1, 3, 0,16, 0.00,60.00,Tuesday
25,383478434.6072885
757,15485622.058929563
1870,383478434.6072884
2,3, 1, 3, 0,17, 0.00,60.00,Tuesday
25,403392994.0365693
757,20387598.656239228
1870,403392994.03656938
2,3, 1, 3, 0,18, 0.00,60.00,Tuesday
25,290534574.16707786
757,11049550.771509817
1870,290534574.16707786
2,3, 1, 3, 0,19, 0.00,60.00,Tuesday
25,168027227.75195236
757,10984029.546167238
1870,168027227.75195236
2,3, 1, 3, 0,20, 0.00,60.00,Tuesday
25,150886325.31485353
757,6791184.0
1870,150886325.31485353
2,3, 1, 3, 0,21, 0.00,60.00,Tuesday
25,127677732.01325545
757,7146300.343236868
1870,127677732.01325542
2,3, 1, 3, 0,22, 0.00,60.00,Tuesday
25,123033868.88553876
757,18175120.737639805
1870,123033868.88553874
2,3, 1, 3, 0,23, 0.00,60.00,Tuesday
25,90323952.76734039
757,6791184.0
1870,90323952.76734039
2,3, 1, 3, 0,24, 0.00,60.00,Tuesday
25,78718034.42393798
757,6791184.0
1870,78718034.42393798
2,4, 1, 4, 0, 1, 0.00,60.00,Wednesday
25,59209304.021005768
757,6791184.0
1870,59209304.021005768
2,4, 1, 4, 0, 2, 0.00,60.00,Wednesday
25,57609860.1137362
757,6791184.0
1870,57609860.1137362
2,4, 1, 4, 0, 3, 0.00,60.00,Wednesday
25,57609860.1137362
757,6791184.0
1870,57609860.1137362
2,4, 1, 4, 0, 4, 0.00,60.00,Wednesday
25,57609860.1137362
757,6791184.0
1870,57609860.1137362
2,4, 1, 4, 0, 5, 0.00,60.00,Wednesday
25,57609860.1137362
757,6791184.0
1870,57609860.1137362
2,4, 1, 4, 0, 6, 0.00,60.00,Wednesday
25,57609860.1137362
757,6791184.0
1870,57609860.1137362
2,4, 1, 4, 0, 7, 0.00,60.00,Wednesday
25,101170874.36013335
757,39483354.25881837
1870,101170874.36013334
2,4, 1, 4, 0, 8, 0.00,60.00,Wednesday
25,190488742.9852379
757,13296889.962652479
1870,190488742.98523788
2,4, 1, 4, 0, 9, 0.00,60.00,Wednesday
25,389148911.5975918
757,6791184.0
1870,389148911.59759178
2,4, 1, 4, 0,10, 0.00,60.00,Wednesday
25,370919564.24306479
757,6791184.0
1870,370919564.2430647
2,4, 1, 4, 0,11, 0.00,60.00,Wednesday
25,379890044.3414683
757,6791184.0
1870,379890044.3414682
2,4, 1, 4, 0,12, 0.00,60.00,Wednesday
25,398468146.7614512
757,15948492.600617769
1870,398468146.7614512
2,4, 1, 4, 0,13, 0.00,60.00,Wednesday
25,401862813.51243236
757,25841184.71099653
1870,401862813.51243236
2,4, 1, 4, 0,14, 0.00,60.00,Wednesday
25,416925603.6004128
757,25620151.61149745
1870,416925603.6004128
2,4, 1, 4, 0,15, 0.00,60.00,Wednesday
25,404741853.2894178
757,15520952.27987566
1870,404741853.28941777
2,4, 1, 4, 0,16, 0.00,60.00,Wednesday
25,400071924.424574
757,15489576.996120234
1870,400071924.4245739
2,4, 1, 4, 0,17, 0.00,60.00,Wednesday
25,421777457.9133695
757,20390324.393514918
1870,421777457.9133695
2,4, 1, 4, 0,18, 0.00,60.00,Wednesday
25,302255077.5369482
757,11051917.004294802
1870,302255077.5369482
2,4, 1, 4, 0,19, 0.00,60.00,Wednesday
25,171145475.108406
757,10966255.786102046
1870,171145475.10840599
2,4, 1, 4, 0,20, 0.00,60.00,Wednesday
25,150898161.08031989
757,6791184.0
1870,150898161.08031989
2,4, 1, 4, 0,21, 0.00,60.00,Wednesday
25,127677732.01325545
757,6791184.0
1870,127677732.01325542
2,4, 1, 4, 0,22, 0.00,60.00,Wednesday
25,123033868.88553876
757,7041523.594557477
1870,123033868.88553874
2,4, 1, 4, 0,23, 0.00,60.00,Wednesday
25,90323952.76734039
757,6791184.0
1870,90323952.76734039
2,4, 1, 4, 0,24, 0.00,60.00,Wednesday
25,78718034.42393798
757,6791184.0
1870,78718034.42393798
2,5, 1, 5, 0, 1, 0.00,60.00,Thursday
25,59209304.021005768
757,6791184.0
1870,59209304.021005768
2,5, 1, 5, 0, 2, 0.00,60.00,Thursday
25,57609860.1137362
757,6791184.0
1870,57609860.1137362
2,5, 1, 5, 0, 3, 0.00,60.00,Thursday
25,57609860.1137362
757,6791184.0
1870,57609860.1137362
2,5, 1, 5, 0, 4, 0.00,60.00,Thursday
25,57609860.1137362
757,6791184.0
1870,57609860.1137362
2,5, 1, 5, 0, 5, 0.00,60.00,Thursday
25,57609860.1137362
757,6791184.0
1870,57609860.1137362
2,5, 1, 5, 0, 6, 0.00,60.00,Thursday
25,57609860.1137362
757,6791184.0
1870,57609860.1137362
2,5, 1, 5, 0, 7, 0.00,60.00,Thursday
25,101154983.47850669
757,46933918.23352441
1870,101154983.47850669
2,5, 1, 5, 0, 8, 0.00,60.00,Thursday
25,189152260.18525804
757,32051775.608795264
1870,189152260.18525804
2,5, 1, 5, 0, 9, 0.00,60.00,Thursday
25,390930393.7912663
757,8410546.388999947
1870,390930393.7912663
2,5, 1, 5, 0,10, 0.00,60.00,Thursday
25,365817920.64596167
757,6791184.0
1870,365817920.6459616
2,5, 1, 5, 0,11, 0.00,60.00,Thursday
25,375681226.3222891
757,6791184.0
1870,375681226.3222891
2,5, 1, 5, 0,12, 0.00,60.00,Thursday
25,394543580.4901704
757,15950047.508418132
1870,394543580.49017038
2,5, 1, 5, 0,13, 0.00,60.00,Thursday
25,397635422.7442616
757,25844183.048312718
1870,397635422.7442616
2,5, 1, 5, 0,14, 0.00,60.00,Thursday
25,406979667.62301579
757,25620936.457729356
1870,406979667.6230157
2,5, 1, 5, 0,15, 0.00,60.00,Thursday
25,389967705.40217337
757,15523769.559212294
1870,389967705.40217337
2,5, 1, 5, 0,16, 0.00,60.00,Thursday
25,383029468.25268986
757,15492525.424756159
1870,383029468.2526898
2,5, 1, 5, 0,17, 0.00,60.00,Thursday
25,399422173.6752968
757,20392492.612372485
1870,399422173.6752968
2,5, 1, 5, 0,18, 0.00,60.00,Thursday
25,291915280.2369986
757,11053986.070336182
1870,291915280.2369986
2,5, 1, 5, 0,19, 0.00,60.00,Thursday
25,168681674.74361868
757,10955006.335957345
1870,168681674.74361868
2,5, 1, 5, 0,20, 0.00,60.00,Thursday
25,151130384.66832055
757,6791184.0
1870,151130384.66832055
2,5, 1, 5, 0,21, 0.00,60.00,Thursday
25,127781410.47147197
757,8878230.165717945
1870,127781410.47147197
2,5, 1, 5, 0,22, 0.00,60.00,Thursday
25,123033868.88553876
757,7750487.081618888
1870,123033868.88553874
2,5, 1, 5, 0,23, 0.00,60.00,Thursday
25,90323952.76734039
757,6791184.0
1870,90323952.76734039
2,5, 1, 5, 0,24, 0.00,60.00,Thursday
25,78718034.42393798
757,6791184.0
1870,78718034.42393798
2,6, 1, 6, 0, 1, 0.00,60.00,Friday
25,59209304.021005768
757,6791184.0
1870,59209304.021005768
2,6, 1, 6, 0, 2, 0.00,60.00,Friday
25,57609860.1137362
757,6791184.0
1870,57609860.1137362
2,6, 1, 6, 0, 3, 0.00,60.00,Friday
25,57609860.1137362
757,6791184.0
1870,57609860.1137362
2,6, 1, 6, 0, 4, 0.00,60.00,Friday
25,57609860.1137362
757,6791184.0
1870,57609860.1137362
2,6, 1, 6, 0, 5, 0.00,60.00,Friday
25,57609860.1137362
757,6791184.0
1870,57609860.1137362
2,6, 1, 6, 0, 6, 0.00,60.00,Friday
25,57609860.1137362
757,6791184.0
1870,57609860.1137362
2,6, 1, 6, 0, 7, 0.00,60.00,Friday
25,101137802.08001004
757,16622333.692716267
1870,101137802.08001003
2,6, 1, 6, 0, 8, 0.00,60.00,Friday
25,184783016.61967457
757,17070012.895766979
1870,184783016.61967454
2,6, 1, 6, 0, 9, 0.00,60.00,Friday
25,391500427.3933959
757,8190250.744975357
1870,391500427.3933959
2,6, 1, 6, 0,10, 0.00,60.00,Friday
25,371716144.20374599
757,6791184.0
1870,371716144.2037459
2,6, 1, 6, 0,11, 0.00,60.00,Friday
25,385302120.4206922
757,6791184.0
1870,385302120.4206922
2,6, 1, 6, 0,12, 0.00,60.00,Friday
25,404892308.6796821
757,15950876.41552406
1870,404892308.679682
2,6, 1, 6, 0,13, 0.00,60.00,Friday
25,407259018.19028428
757,25846050.670403519
1870,407259018.19028428
2,6, 1, 6, 0,14, 0.00,60.00,Friday
25,421737747.4254334
757,25622354.395844208
1870,421737747.42543348
2,6, 1, 6, 0,15, 0.00,60.00,Friday
25,406084567.4141593
757,15524169.511169292
1870,406084567.4141593
2,6, 1, 6, 0,16, 0.00,60.00,Friday
25,400242281.15100547
757,15492713.460352458
1870,400242281.1510054
2,6, 1, 6, 0,17, 0.00,60.00,Friday
25,418581355.6920495
757,20393106.892559086
1870,418581355.6920494
2,6, 1, 6, 0,18, 0.00,60.00,Friday
25,295932535.06838026
757,11053108.029965874
1870,295932535.06838026
2,6, 1, 6, 0,19, 0.00,60.00,Friday
25,168992783.88048453
757,10957615.802958202
1870,168992783.88048453
2,6, 1, 6, 0,20, 0.00,60.00,Friday
25,151280694.16603235
757,8014394.269225271
1870,151280694.16603235
2,6, 1, 6, 0,21, 0.00,60.00,Friday
25,127885101.07998252
757,10952825.390325288
1870,127885101.07998252
2,6, 1, 6, 0,22, 0.00,60.00,Friday
25,123036088.61342913
757,9695432.067610804
1870,123036088.61342912
2,6, 1, 6, 0,23, 0.00,60.00,Friday
25,90323952.76734039
757,6791184.0
1870,90323952.76734039
2,6, 1, 6, 0,24, 0.00,60.00,Friday
25,78718034.42393798
757,6791184.0
1870,78718034.42393798
2,7, 1, 7, 0, 1, 0.00,60.00,Saturday
25,47958411.42426019
757,6791184.0
1870,47958411.424260187
2,7, 1, 7, 0, 2, 0.00,60.00,Saturday
25,46359235.70955593
757,6791184.0
1870,46359235.709555927
2,7, 1, 7, 0, 3, 0.00,60.00,Saturday
25,46359235.70955593
757,6791184.0
1870,46359235.709555927
2,7, 1, 7, 0, 4, 0.00,60.00,Saturday
25,46359235.70955593
757,6791184.0
1870,46359235.709555927
2,7, 1, 7, 0, 5, 0.00,60.00,Saturday
25,46359235.70955593
757,6791184.0
1870,46359235.709555927
2,7, 1, 7, 0, 6, 0.00,60.00,Saturday
25,46359235.70955593
757,6791184.0
1870,46359235.709555927
2,7, 1, 7, 0, 7, 0.00,60.00,Saturday
25,101118550.3633737
757,37416790.88134143
1870,101118550.36337368
2,7, 1, 7, 0, 8, 0.00,60.00,Saturday
25,109552020.66577538
757,29085023.037904219
1870,109552020.66577536
2,7, 1, 7, 0, 9, 0.00,60.00,Saturday
25,153036882.366181
757,7755221.047994495
1870,153036882.36618097
2,7, 1, 7, 0,10, 0.00,60.00,Saturday
25,177562611.8974311
757,6791184.0
1870,177562611.8974311
2,7, 1, 7, 0,11, 0.00,60.00,Saturday
25,190117190.30529974
757,6791184.0
1870,190117190.30529977
2,7, 1, 7, 0,12, 0.00,60.00,Saturday
25,206959660.8101116
757,6791184.0
1870,206959660.8101116
2,7, 1, 7, 0,13, 0.00,60.00,Saturday
25,147304092.72993494
757,6791184.0
1870,147304092.72993494
2,7, 1, 7, 0,14, 0.00,60.00,Saturday
25,129558891.50824039
757,6791184.0
1870,129558891.50824039
2,7, 1, 7, 0,15, 0.00,60.00,Saturday
25,111630924.34289778
757,6791184.0
1870,111630924.34289778
2,7, 1, 7, 0,16, 0.00,60.00,Saturday
25,95583461.96590947
757,6791184.0
1870,95583461.96590947
2,7, 1, 7, 0,17, 0.00,60.00,Saturday
25,99023942.29749778
757,6791184.0
1870,99023942.29749777
2,7, 1, 7, 0,18, 0.00,60.00,Saturday
25,89016959.21234715
757,6791184.0
1870,89016959.21234715
2,7, 1, 7, 0,19, 0.00,60.00,Saturday
25,72551231.83277507
757,6791184.0
1870,72551231.83277507
2,7, 1, 7, 0,20, 0.00,60.00,Saturday
25,50503791.42426019
757,6791184.0
1870,50503791.42426019
2,7, 1, 7, 0,21, 0.00,60.00,Saturday
25,48904615.70955593
757,6791184.0
1870,48904615.70955593
2,7, 1, 7, 0,22, 0.00,60.00,Saturday
25,48904615.70955593
757,6791184.0
1870,48904615.70955593
2,7, 1, 7, 0,23, 0.00,60.00,Saturday
25,48904615.70955593
757,6791184.0
1870,48904615.70955593
2,7, 1, 7, 0,24, 0.00,60.00,Saturday
25,48904615.70955593
757,6791184.0
1870,48904615.70955593
2,8, 1, 8, 0, 1, 0.00,60.00,Sunday
25,46359235.70955593
757,6791184.0
1870,46359235.709555927
2,8, 1, 8, 0, 2, 0.00,60.00,Sunday
25,46359235.70955593
757,6791184.0
1870,46359235.709555927
2,8, 1, 8, 0, 3, 0.00,60.00,Sunday
25,46359235.70955593
757,6791184.0
1870,46359235.709555927
2,8, 1, 8, 0, 4, 0.00,60.00,Sunday
25,46359235.70955593
757,6791184.0
1870,46359235.709555927
2,8, 1, 8, 0, 5, 0.00,60.00,Sunday
25,46359235.70955593
757,6791184.0
1870,46359235.709555927
2,8, 1, 8, 0, 6, 0.00,60.00,Sunday
25,46359235.70955593
757,6791184.0
1870,46359235.709555927
2,8, 1, 8, 0, 7, 0.00,60.00,Sunday
25,67998915.03483472
757,6791184.0
1870,67998915.0348347
2,8, 1, 8, 0, 8, 0.00,60.00,Sunday
25,51983272.158101279
757,6791184.0
1870,51983272.15810129
2,8, 1, 8, 0, 9, 0.00,60.00,Sunday
25,51350990.91877582
757,6791184.0
1870,51350990.91877582
2,8, 1, 8, 0,10, 0.00,60.00,Sunday
25,51225219.23648247
757,6791184.0
1870,51225219.23648247
2,8, 1, 8, 0,11, 0.00,60.00,Sunday
25,52386626.72184404
757,6791184.0
1870,52386626.72184404
2,8, 1, 8, 0,12, 0.00,60.00,Sunday
25,64380138.50571025
757,6791184.0
1870,64380138.505710247
2,8, 1, 8, 0,13, 0.00,60.00,Sunday
25,70700291.49302033
757,6791184.0
1870,70700291.49302034
2,8, 1, 8, 0,14, 0.00,60.00,Sunday
25,74463136.65691425
757,6791184.0
1870,74463136.65691425
2,8, 1, 8, 0,15, 0.00,60.00,Sunday
25,66847861.529502999
757,6791184.0
1870,66847861.529502999
2,8, 1, 8, 0,16, 0.00,60.00,Sunday
25,53484036.983011338
757,6791184.0
1870,53484036.983011338
2,8, 1, 8, 0,17, 0.00,60.00,Sunday
25,55705290.376426819
757,6791184.0
1870,55705290.376426819
2,8, 1, 8, 0,18, 0.00,60.00,Sunday
25,72551231.83277507
757,6791184.0
1870,72551231.83277507
2,8, 1, 8, 0,19, 0.00,60.00,Sunday
25,58318671.4242602
757,6791184.0
1870,58318671.4242602
2,8, 1, 8, 0,20, 0.00,60.00,Sunday
25,48904615.70955593
757,6791184.0
1870,48904615.70955593
2,8, 1, 8, 0,21, 0.00,60.00,Sunday
25,48904615.70955593
757,6791184.0
1870,48904615.70955593
2,8, 1, 8, 0,22, 0.00,60.00,Sunday
25,48904615.70955593
757,6791184.0
1870,48904615.70955593
2,8, 1, 8, 0,23, 0.00,60.00,Sunday
25,48904615.70955593
757,6791184.0
1870,48904615.70955593
2,8, 1, 8, 0,24, 0.00,60.00,Sunday
25,48904615.70955593
757,6791184.0
1870,48904615.70955593
2,9, 1, 9, 0, 1, 0.00,60.00,Monday
25,57609860.1137362
757,6791184.0
1870,57609860.1137362
2,9, 1, 9, 0, 2, 0.00,60.00,Monday
25,57609860.1137362
757,6791184.0
1870,57609860.1137362
2,9, 1, 9, 0, 3, 0.00,60.00,Monday
25,57609860.1137362
757,6791184.0
1870,57609860.1137362
2,9, 1, 9, 0, 4, 0.00,60.00,Monday
25,57609860.1137362
757,6791184.0
1870,57609860.1137362
2,9, 1, 9, 0, 5, 0.00,60.00,Monday
25,57609860.1137362
757,6791184.0
1870,57609860.1137362
2,9, 1, 9, 0, 6, 0.00,60.00,Monday
25,57609860.1137362
757,6791184.0
1870,57609860.1137362
2,9, 1, 9, 0, 7, 0.00,60.00,Monday
25,122308438.07061385
757,64883226.09842106
1870,122308438.07061383
2,9, 1, 9, 0, 8, 0.00,60.00,Monday
25,216932448.41058327
757,56529680.80469723
1870,216932448.41058324
2,9, 1, 9, 0, 9, 0.00,60.00,Monday
25,390015485.8848559
757,19948921.068828815
1870,390015485.8848559
2,9, 1, 9, 0,10, 0.00,60.00,Monday
25,354938098.5595854
757,6791184.0
1870,354938098.55958536
2,9, 1, 9, 0,11, 0.00,60.00,Monday
25,362434292.0737443
757,6791184.0
1870,362434292.0737444
2,9, 1, 9, 0,12, 0.00,60.00,Monday
25,391335191.1920446
757,11371195.21139584
1870,391335191.1920446
2,9, 1, 9, 0,13, 0.00,60.00,Monday
25,395383671.94822618
757,25844806.23267264
1870,395383671.94822618
2,9, 1, 9, 0,14, 0.00,60.00,Monday
25,401296125.87123259
757,25626539.178549835
1870,401296125.87123259
2,9, 1, 9, 0,15, 0.00,60.00,Monday
25,382399440.5633668
757,15528314.717954264
1870,382399440.5633668
2,9, 1, 9, 0,16, 0.00,60.00,Monday
25,374325037.9768646
757,15502181.720741183
1870,374325037.9768646
2,9, 1, 9, 0,17, 0.00,60.00,Monday
25,393792152.478316
757,20386298.841544525
1870,393792152.478316
2,9, 1, 9, 0,18, 0.00,60.00,Monday
25,292664360.2490683
757,11038432.708452832
1870,292664360.2490683
2,9, 1, 9, 0,19, 0.00,60.00,Monday
25,168408189.79150409
757,10958808.13560712
1870,168408189.79150409
2,9, 1, 9, 0,20, 0.00,60.00,Monday
25,150891240.20466478
757,6791184.0
1870,150891240.20466478
2,9, 1, 9, 0,21, 0.00,60.00,Monday
25,127677732.01325545
757,9227480.61980313
1870,127677732.01325542
2,9, 1, 9, 0,22, 0.00,60.00,Monday
25,123033868.88553876
757,26774404.119641115
1870,123033868.88553874
2,9, 1, 9, 0,23, 0.00,60.00,Monday
25,90323952.76734039
757,6791184.0
1870,90323952.76734039
2,9, 1, 9, 0,24, 0.00,60.00,Monday
25,78718034.42393798
757,6791184.0
1870,78718034.42393798
2,10, 1,10, 0, 1, 0.00,60.00,Tuesday
25,59209304.021005768
757,6791184.0
1870,59209304.021005768
2,10, 1,10, 0, 2, 0.00,60.00,Tuesday
25,57609860.1137362
757,6791184.0
1870,57609860.1137362
2,10, 1,10, 0, 3, 0.00,60.00,Tuesday
25,57609860.1137362
757,6791184.0
1870,57609860.1137362
2,10, 1,10, 0, 4, 0.00,60.00,Tuesday
25,57609860.1137362
757,6791184.0
1870,57609860.1137362
2,10, 1,10, 0, 5, 0.00,60.00,Tuesday
25,57609860.1137362
757,6791184.0
1870,57609860.1137362
2,10, 1,10, 0, 6, 0.00,60.00,Tuesday
25,57609860.1137362
757,6791184.0
1870,57609860.1137362
2,10, 1,10, 0, 7, 0.00,60.00,Tuesday
25,106458283.61561452
757,61120558.60620897
1870,106458283.6156145
2,10, 1,10, 0, 8, 0.00,60.00,Tuesday
25,196934119.67960776
757,44084810.93877079
1870,196934119.67960773
2,10, 1,10, 0, 9, 0.00,60.00,Tuesday
25,390478013.97235789
757,12596099.591215373
1870,390478013.9723578
2,10, 1,10, 0,10, 0.00,60.00,Tuesday
25,362050966.8837939
757,6791184.0
1870,362050966.88379386
2,10, 1,10, 0,11, 0.00,60.00,Tuesday
25,371832369.90843769
757,6791184.0
1870,371832369.90843769
2,10, 1,10, 0,12, 0.00,60.00,Tuesday
25,386752692.04034599
757,15953902.409903137
1870,386752692.04034599
2,10, 1,10, 0,13, 0.00,60.00,Tuesday
25,392239546.6773819
757,25844350.21468658
1870,392239546.6773819
2,10, 1,10, 0,14, 0.00,60.00,Tuesday
25,403988768.82648298
757,25627726.579245334
1870,403988768.82648298
2,10, 1,10, 0,15, 0.00,60.00,Tuesday
25,386499004.5250881
757,15545347.749999332
1870,386499004.525088
2,10, 1,10, 0,16, 0.00,60.00,Tuesday
25,373020265.5168305
757,15519506.818491128
1870,373020265.51683047
2,10, 1,10, 0,17, 0.00,60.00,Tuesday
25,394140583.9209872
757,20384639.769664688
1870,394140583.9209872
2,10, 1,10, 0,18, 0.00,60.00,Tuesday
25,293034563.5227709
757,11044642.600353789
1870,293034563.5227709
2,10, 1,10, 0,19, 0.00,60.00,Tuesday
25,168599605.92695076
757,10976173.21461122
1870,168599605.92695076
2,10, 1,10, 0,20, 0.00,60.00,Tuesday
25,151049757.1664262
757,7727810.41882531
1870,151049757.16642619
2,10, 1,10, 0,21, 0.00,60.00,Tuesday
25,127700899.35658527
757,20193340.399052405
1870,127700899.35658527
2,10, 1,10, 0,22, 0.00,60.00,Tuesday
25,123033868.88553876
757,32443626.458538213
1870,123033868.88553874
2,10, 1,10, 0,23, 0.00,60.00,Tuesday
25,90323952.76734039
757,6791184.0
1870,90323952.76734039
2,10, 1,10, 0,24, 0.00,60.00,Tuesday
25,78718034.42393798
757,6791184.0
1870,78718034.42393798
2,11, 1,11, 0, 1, 0.00,60.00,Wednesday
25,59209304.021005768
757,6791184.0
1870,59209304.021005768
2,11, 1,11, 0, 2, 0.00,60.00,Wednesday
25,57609860.1137362
757,6791184.0
1870,57609860.1137362
2,11, 1,11, 0, 3, 0.00,60.00,Wednesday
25,57609860.1137362
757,6791184.0
1870,57609860.1137362
2,11, 1,11, 0, 4, 0.00,60.00,Wednesday
25,57609860.1137362
757,6791184.0
1870,57609860.1137362
2,11, 1,11, 0, 5, 0.00,60.00,Wednesday
25,57609860.1137362
757,6791184.0
1870,57609860.1137362
2,11, 1,11, 0, 6, 0.00,60.00,Wednesday
25,57609860.1137362
757,6791184.0
1870,57609860.1137362
2,11, 1,11, 0, 7, 0.00,60.00,Wednesday
25,101276996.10127546
757,53236522.39361723
1870,101276996.10127546
2,11, 1,11, 0, 8, 0.00,60.00,Wednesday
25,190863158.3620696
757,38488269.63666722
1870,190863158.3620696
2,11, 1,11, 0, 9, 0.00,60.00,Wednesday
25,392084389.9380865
757,15642154.518115474
1870,392084389.93808647
2,11, 1,11, 0,10, 0.00,60.00,Wednesday
25,358685217.7849182
757,6791184.0
1870,358685217.7849182
2,11, 1,11, 0,11, 0.00,60.00,Wednesday
25,356040633.2171799
757,6791184.0
1870,356040633.2171799
2,11, 1,11, 0,12, 0.00,60.00,Wednesday
25,386155336.10475566
757,15955474.090949858
1870,386155336.1047555
2,11, 1,11, 0,13, 0.00,60.00,Wednesday
25,390318823.99941048
757,25844807.607644179
1870,390318823.9994104
2,11, 1,11, 0,14, 0.00,60.00,Wednesday
25,398741950.956851
757,25628819.622596757
1870,398741950.95685097
2,11, 1,11, 0,15, 0.00,60.00,Wednesday
25,380443702.4931591
757,15549802.433203903
1870,380443702.4931592
2,11, 1,11, 0,16, 0.00,60.00,Wednesday
25,367656629.61733499
757,15522294.532882769
1870,367656629.6173349
2,11, 1,11, 0,17, 0.00,60.00,Wednesday
25,392669944.53116986
757,20383773.779688244
1870,392669944.53116986
2,11, 1,11, 0,18, 0.00,60.00,Wednesday
25,295556155.7075874
757,11030323.847601749
1870,295556155.70758739
2,11, 1,11, 0,19, 0.00,60.00,Wednesday
25,168838380.34608133
757,10982278.885592683
1870,168838380.34608133
2,11, 1,11, 0,20, 0.00,60.00,Wednesday
25,151171399.68509198
757,6791184.0
1870,151171399.68509198
2,11, 1,11, 0,21, 0.00,60.00,Wednesday
25,127789651.56371343
757,6791184.0
1870,127789651.5637134
2,11, 1,11, 0,22, 0.00,60.00,Wednesday
25,123033868.88553876
757,13622697.435615553
1870,123033868.88553874
2,11, 1,11, 0,23, 0.00,60.00,Wednesday
25,90323952.76734039
757,6791184.0
1870,90323952.76734039
2,11, 1,11, 0,24, 0.00,60.00,Wednesday
25,78718034.42393798
757,6791184.0
1870,78718034.42393798
2,12, 1,12, 0, 1, 0.00,60.00,Thursday
25,59209304.021005768
757,6791184.0
1870,59209304.021005768
2,12, 1,12, 0, 2, 0.00,60.00,Thursday
25,57609860.1137362
757,6791184.0
1870,57609860.1137362
2,12, 1,12, 0, 3, 0.00,60.00,Thursday
25,57609860.1137362
757,6791184.0
1870,57609860.1137362
2,12, 1,12, 0, 4, 0.00,60.00,Thursday
25,57609860.1137362
757,6791184.0
1870,57609860.1137362
2,12, 1,12, 0, 5, 0.00,60.00,Thursday
25,57609860.1137362
757,6791184.0
1870,57609860.1137362
2,12, 1,12, 0, 6, 0.00,60.00,Thursday
25,57609860.1137362
757,6791184.0
1870,57609860.1137362
2,12, 1,12, 0, 7, 0.00,60.00,Thursday
25,101476933.18678433
757,32665748.021444024
1870,101476933.1867843
2,12, 1,12, 0, 8, 0.00,60.00,Thursday
25,183680500.55004538
757,32091893.249638354
1870,183680500.5500453
2,12, 1,12, 0, 9, 0.00,60.00,Thursday
25,391472631.18889686
757,21410914.261903306
1870,391472631.18889686
2,12, 1,12, 0,10, 0.00,60.00,Thursday
25,359854303.64517709
757,7441255.867073884
1870,359854303.645177
2,12, 1,12, 0,11, 0.00,60.00,Thursday
25,353293459.3070252
757,6791184.0
1870,353293459.3070252
2,12, 1,12, 0,12, 0.00,60.00,Thursday
25,380468425.96405366
757,15957439.159224973
1870,380468425.9640536
2,12, 1,12, 0,13, 0.00,60.00,Thursday
25,399977705.2101742
757,25845282.33331576
1870,399977705.21017417
2,12, 1,12, 0,14, 0.00,60.00,Thursday
25,412143023.5953053
757,25629140.034361066
1870,412143023.5953052
2,12, 1,12, 0,15, 0.00,60.00,Thursday
25,394208567.0571613
757,15551961.751970847
1870,394208567.0571613
2,12, 1,12, 0,16, 0.00,60.00,Thursday
25,396474459.76294407
757,15520230.221683179
1870,396474459.762944
2,12, 1,12, 0,17, 0.00,60.00,Thursday
25,414883979.86083379
757,20382851.195697767
1870,414883979.86083379
2,12, 1,12, 0,18, 0.00,60.00,Thursday
25,292444255.64860728
757,11042848.751696887
1870,292444255.64860728
2,12, 1,12, 0,19, 0.00,60.00,Thursday
25,168733309.53361244
757,10977972.00491618
1870,168733309.53361244
2,12, 1,12, 0,20, 0.00,60.00,Thursday
25,151153483.7487175
757,6791184.0
1870,151153483.7487175
2,12, 1,12, 0,21, 0.00,60.00,Thursday
25,127804694.62115333
757,6791184.0
1870,127804694.62115328