Program Version,EnergyPlus, Version 9.0.1-bb7ca4f0da, YMD=2022.04.26 19:50
1,5,Environment Title[],Latitude[deg],Longitude[deg],Time Zone[],Elevation[m]
2,8,Day of Simulation[],Month[],Day of Month[],DST Indicator[1=yes 0=no],Hour[],StartMinute[],EndMinute[],DayType
3,5,Cumulative Day of Simulation[],Month[],Day of Month[],DST Indicator[1=yes 0=no],DayType  ! When Daily Meters Requested
4,2,Cumulative Days of Simulation[],Month[]  ! When Monthly Meters Requested
5,1,Cumulative Days of Simulation[] ! When Run Period Meters Requested
6,1,Calendar Year of Simulation[] ! When Annual Meters Requested
25,1,Electricity:Facility [J] !Hourly
1870,1,ElectricityNet:Facility [J] !Hourly
757,1,Gas:Facility [J] !Hourly
End of Data Dictionary
1,RUNPERIOD 1,  32.58,-116.98,  -8.00, 159.00
2,1, 1, 1, 0, 1, 0.00,60.00,Holiday
25,46359074.93593144
757,6791184.0
1870,46359074.93593143
2,1, 1, 1, 0, 2, 0.00,60.00,Holiday
25,46359235.70955593
757,6791184.0
1870,46359235.709555927
2,1, 1, 1, 0, 3, 0.00,60.00,Holiday
25,46359235.70955593
757,6791184.0
1870,46359235.709555927
2,1, 1, 1, 0, 4, 0.00,60.00,Holiday
25,46359235.70955593
757,6791184.0
1870,46359235.709555927
2,1, 1, 1, 0, 5, 0.00,60.00,Holiday
25,46359235.70955593
757,6791184.0
1870,46359235.709555927
2,1, 1, 1, 0, 6, 0.00,60.00,Holiday
25,46359235.70955593
757,6791184.0
1870,46359235.709555927
2,1, 1, 1, 0, 7, 0.00,60.00,Holiday
25,62835664.11785701
757,6791184.0
1870,62835664.11785701
2,1, 1, 1, 0, 8, 0.00,60.00,Holiday
25,46641429.03377286
757,6791184.0
1870,46641429.03377286
2,1, 1, 1, 0, 9, 0.00,60.00,Holiday
25,46320927.947663698
757,6791184.0
1870,46320927.947663698
2,1, 1, 1, 0,10, 0.00,60.00,Holiday
25,46288812.51597283
757,6791184.0
1870,46288812.51597283
2,1, 1, 1, 0,11, 0.00,60.00,Holiday
25,46333177.971896018
757,6791184.0
1870,46333177.97189601
2,1, 1, 1, 0,12, 0.00,60.00,Holiday
25,46294868.38195652
757,6791184.0
1870,46294868.38195651
2,1, 1, 1, 0,13, 0.00,60.00,Holiday
25,46288812.51597283
757,6791184.0
1870,46288812.51597283
2,1, 1, 1, 0,14, 0.00,60.00,Holiday
25,46288812.51597283
757,6791184.0
1870,46288812.51597283
2,1, 1, 1, 0,15, 0.00,60.00,Holiday
25,46297049.95146436
757,6791184.0
1870,46297049.951464358
2,1, 1, 1, 0,16, 0.00,60.00,Holiday
25,46363740.30021446
757,6791184.0
1870,46363740.30021446
2,1, 1, 1, 0,17, 0.00,60.00,Holiday
25,53321942.22249201
757,6791184.0
1870,53321942.22249201
2,1, 1, 1, 0,18, 0.00,60.00,Holiday
25,66276703.53612528
757,6791184.0
1870,66276703.53612528
2,1, 1, 1, 0,19, 0.00,60.00,Holiday
25,57105773.81922845
757,6791184.0
1870,57105773.81922844
2,1, 1, 1, 0,20, 0.00,60.00,Holiday
25,48904615.70955593
757,6791184.0
1870,48904615.70955593
2,1, 1, 1, 0,21, 0.00,60.00,Holiday
25,48904615.70955593
757,6791184.0
1870,48904615.70955593
2,1, 1, 1, 0,22, 0.00,60.00,Holiday
25,48904615.70955593
757,6791184.0
1870,48904615.70955593
2,1, 1, 1, 0,23, 0.00,60.00,Holiday
25,48904615.70955593
757,6791184.0
1870,48904615.70955593
2,1, 1, 1, 0,24, 0.00,60.00,Holiday
25,48904615.70955593
757,6791184.0
1870,48904615.70955593
2,2, 1, 2, 0, 1, 0.00,60.00,Monday
25,57609860.1137362
757,6791184.0
1870,57609860.1137362
2,2, 1, 2, 0, 2, 0.00,60.00,Monday
25,57609860.1137362
757,6791184.0
1870,57609860.1137362
2,2, 1, 2, 0, 3, 0.00,60.00,Monday
25,57609860.1137362
757,6791184.0
1870,57609860.1137362
2,2, 1, 2, 0, 4, 0.00,60.00,Monday
25,57609860.1137362
757,6791184.0
1870,57609860.1137362
2,2, 1, 2, 0, 5, 0.00,60.00,Monday
25,57609860.1137362
757,6791184.0
1870,57609860.1137362
2,2, 1, 2, 0, 6, 0.00,60.00,Monday
25,57609860.1137362
757,6791184.0
1870,57609860.1137362
2,2, 1, 2, 0, 7, 0.00,60.00,Monday
25,107336372.35303825
757,17109407.502167286
1870,107336372.35303822
2,2, 1, 2, 0, 8, 0.00,60.00,Monday
25,210245456.39739327
757,16059408.3802265
1870,210245456.39739324
2,2, 1, 2, 0, 9, 0.00,60.00,Monday
25,301198274.46853849
757,8054217.96600855
1870,301198274.46853849
2,2, 1, 2, 0,10, 0.00,60.00,Monday
25,261839609.60718895
757,6791184.0
1870,261839609.60718889
2,2, 1, 2, 0,11, 0.00,60.00,Monday
25,256731456.1134196
757,6791184.0
1870,256731456.11341957
2,2, 1, 2, 0,12, 0.00,60.00,Monday
25,265925907.6041239
757,11367856.81841549
1870,265925907.60412384
2,2, 1, 2, 0,13, 0.00,60.00,Monday
25,266207107.51833494
757,25841427.642388759
1870,266207107.51833494
2,2, 1, 2, 0,14, 0.00,60.00,Monday
25,269810841.6708448
757,25620626.08811361
1870,269810841.67084476
2,2, 1, 2, 0,15, 0.00,60.00,Monday
25,256470156.89095358
757,15518442.471452348
1870,256470156.89095355
2,2, 1, 2, 0,16, 0.00,60.00,Monday
25,257272412.20662756
757,15487303.856064745
1870,257272412.20662756
2,2, 1, 2, 0,17, 0.00,60.00,Monday
25,285412123.97751578
757,20387986.32259753
1870,285412123.9775157
2,2, 1, 2, 0,18, 0.00,60.00,Monday
25,236666333.32492707
757,22427826.026857299
1870,236666333.32492704
2,2, 1, 2, 0,19, 0.00,60.00,Monday
25,130286121.22437144
757,38635512.15467682
1870,130286121.22437139
2,2, 1, 2, 0,20, 0.00,60.00,Monday
25,115654864.21626093
757,50440982.65429578
1870,115654864.2162609
2,2, 1, 2, 0,21, 0.00,60.00,Monday
25,110544572.32681556
757,68328764.01700552
1870,110544572.32681553
2,2, 1, 2, 0,22, 0.00,60.00,Monday
25,110221950.26905753
757,67469267.43550906
1870,110221950.26905751
2,2, 1, 2, 0,23, 0.00,60.00,Monday
25,77772390.65670999
757,6791184.0
1870,77772390.65670999
2,2, 1, 2, 0,24, 0.00,60.00,Monday
25,72442274.24247962
757,6791184.0
1870,72442274.24247962
2,3, 1, 3, 0, 1, 0.00,60.00,Tuesday
25,57996196.7332391
757,6791184.0
1870,57996196.7332391
2,3, 1, 3, 0, 2, 0.00,60.00,Tuesday
25,57609860.1137362
757,6791184.0
1870,57609860.1137362
2,3, 1, 3, 0, 3, 0.00,60.00,Tuesday
25,57609860.1137362
757,6791184.0
1870,57609860.1137362
2,3, 1, 3, 0, 4, 0.00,60.00,Tuesday
25,57609860.1137362
757,6791184.0
1870,57609860.1137362
2,3, 1, 3, 0, 5, 0.00,60.00,Tuesday
25,57609860.1137362
757,6791184.0
1870,57609860.1137362
2,3, 1, 3, 0, 6, 0.00,60.00,Tuesday
25,57609860.1137362
757,6791184.0
1870,57609860.1137362
2,3, 1, 3, 0, 7, 0.00,60.00,Tuesday
25,112410265.69427006
757,93420153.52731341
1870,112410265.69427005
2,3, 1, 3, 0, 8, 0.00,60.00,Tuesday
25,200099640.41233123
757,82124585.88862346
1870,200099640.4123312
2,3, 1, 3, 0, 9, 0.00,60.00,Tuesday
25,301046106.72428056
757,29989751.966748734
1870,301046106.72428056
2,3, 1, 3, 0,10, 0.00,60.00,Tuesday
25,262883640.34982387
757,7475642.855459977
1870,262883640.34982387
2,3, 1, 3, 0,11, 0.00,60.00,Tuesday
25,258094526.14242689
757,6791184.0
1870,258094526.14242689
2,3, 1, 3, 0,12, 0.00,60.00,Tuesday
25,283360768.62468317
757,15947010.218732359
1870,283360768.6246831
2,3, 1, 3, 0,13, 0.00,60.00,Tuesday
25,296711692.22682008
757,25836499.06870205
1870,296711692.22682008
2,3, 1, 3, 0,14, 0.00,60.00,Tuesday
25,299340523.81531676
757,25618669.572320343
1870,299340523.81531676
2,3, 1, 3, 0,15, 0.00,60.00,Tuesday
25,283557871.13413587
757,15515269.374909133
1870,283557871.1341358
2,3, 1, 3, 0,16, 0.00,60.00,Tuesday
25,283627837.7567624
757,15483070.221553769
1870,283627837.7567623
2,3, 1, 3, 0,17, 0.00,60.00,Tuesday
25,293302561.7705245
757,20385764.58785007
1870,293302561.7705245
2,3, 1, 3, 0,18, 0.00,60.00,Tuesday
25,227326814.65797229
757,11046554.093679987
1870,227326814.65797229
2,3, 1, 3, 0,19, 0.00,60.00,Tuesday
25,128671564.8573986
757,11189668.871918917
1870,128671564.85739857
2,3, 1, 3, 0,20, 0.00,60.00,Tuesday
25,111570869.92694804
757,6895507.512672012
1870,111570869.926948
2,3, 1, 3, 0,21, 0.00,60.00,Tuesday
25,101642796.98858595
757,13505222.277370822
1870,101642796.98858595
2,3, 1, 3, 0,22, 0.00,60.00,Tuesday
25,98790770.03014186
757,38575523.78721785
1870,98790770.03014189
2,3, 1, 3, 0,23, 0.00,60.00,Tuesday
25,77772390.65670999
757,6791184.0
1870,77772390.65670999
2,3, 1, 3, 0,24, 0.00,60.00,Tuesday
25,72442274.24247962
757,6791184.0
1870,72442274.24247962
2,4, 1, 4, 0, 1, 0.00,60.00,Wednesday
25,57996196.7332391
757,6791184.0
1870,57996196.7332391
2,4, 1, 4, 0, 2, 0.00,60.00,Wednesday
25,57609860.1137362
757,6791184.0
1870,57609860.1137362
2,4, 1, 4, 0, 3, 0.00,60.00,Wednesday
25,57609860.1137362
757,6791184.0
1870,57609860.1137362
2,4, 1, 4, 0, 4, 0.00,60.00,Wednesday
25,57609860.1137362
757,6791184.0
1870,57609860.1137362
2,4, 1, 4, 0, 5, 0.00,60.00,Wednesday
25,57609860.1137362
757,6791184.0
1870,57609860.1137362
2,4, 1, 4, 0, 6, 0.00,60.00,Wednesday
25,57609860.1137362
757,6791184.0
1870,57609860.1137362
2,4, 1, 4, 0, 7, 0.00,60.00,Wednesday
25,94800728.55472046
757,57684089.58040172
1870,94800728.55472046
2,4, 1, 4, 0, 8, 0.00,60.00,Wednesday
25,160097522.91523323
757,22541231.950210107
1870,160097522.91523323
2,4, 1, 4, 0, 9, 0.00,60.00,Wednesday
25,296176794.64742049
757,6791184.0
1870,296176794.6474204
2,4, 1, 4, 0,10, 0.00,60.00,Wednesday
25,275767953.84411057
757,6791184.0
1870,275767953.8441105
2,4, 1, 4, 0,11, 0.00,60.00,Wednesday
25,281664029.78241768
757,6791184.0
1870,281664029.7824176
2,4, 1, 4, 0,12, 0.00,60.00,Wednesday
25,298621382.24984356
757,15947542.111307633
1870,298621382.24984356
2,4, 1, 4, 0,13, 0.00,60.00,Wednesday
25,302419174.0006781
757,25838325.126729717
1870,302419174.00067809
2,4, 1, 4, 0,14, 0.00,60.00,Wednesday
25,313653607.7666898
757,25619274.25183726
1870,313653607.7666898
2,4, 1, 4, 0,15, 0.00,60.00,Wednesday
25,299505489.9041622
757,15515248.390702488
1870,299505489.90416219
2,4, 1, 4, 0,16, 0.00,60.00,Wednesday
25,294536277.08107927
757,15482483.284936645
1870,294536277.0810792
2,4, 1, 4, 0,17, 0.00,60.00,Wednesday
25,306146608.2854356
757,20386163.423207135
1870,306146608.2854356
2,4, 1, 4, 0,18, 0.00,60.00,Wednesday
25,234711830.08879177
757,11045147.02583845
1870,234711830.08879177
2,4, 1, 4, 0,19, 0.00,60.00,Wednesday
25,131031743.14607933
757,10976589.222325977
1870,131031743.14607927
2,4, 1, 4, 0,20, 0.00,60.00,Wednesday
25,111570869.92694804
757,9381648.449449512
1870,111570869.926948
2,4, 1, 4, 0,21, 0.00,60.00,Wednesday
25,100912160.59971816
757,12173914.281354404
1870,100912160.59971816
2,4, 1, 4, 0,22, 0.00,60.00,Wednesday
25,96269263.15284068
757,15497336.594258896
1870,96269263.15284068
2,4, 1, 4, 0,23, 0.00,60.00,Wednesday
25,77772390.65670999
757,6791184.0
1870,77772390.65670999
2,4, 1, 4, 0,24, 0.00,60.00,Wednesday
25,72442274.24247962
757,6791184.0
1870,72442274.24247962
2,5, 1, 5, 0, 1, 0.00,60.00,Thursday
25,57996196.7332391
757,6791184.0
1870,57996196.7332391
2,5, 1, 5, 0, 2, 0.00,60.00,Thursday
25,57609860.1137362
757,6791184.0
1870,57609860.1137362
2,5, 1, 5, 0, 3, 0.00,60.00,Thursday
25,57609860.1137362
757,6791184.0
1870,57609860.1137362
2,5, 1, 5, 0, 4, 0.00,60.00,Thursday
25,57609860.1137362
757,6791184.0
1870,57609860.1137362
2,5, 1, 5, 0, 5, 0.00,60.00,Thursday
25,57609860.1137362
757,6791184.0
1870,57609860.1137362
2,5, 1, 5, 0, 6, 0.00,60.00,Thursday
25,57609860.1137362
757,6791184.0
1870,57609860.1137362
2,5, 1, 5, 0, 7, 0.00,60.00,Thursday
25,90201342.83820389
757,69076234.53091489
1870,90201342.8382039
2,5, 1, 5, 0, 8, 0.00,60.00,Thursday
25,157876814.6905334
757,51523940.53760992
1870,157876814.69053338
2,5, 1, 5, 0, 9, 0.00,60.00,Thursday
25,297717563.3483237
757,12726437.701194432
1870,297717563.3483237
2,5, 1, 5, 0,10, 0.00,60.00,Thursday
25,270991050.0332924
757,6791184.0
1870,270991050.0332924
2,5, 1, 5, 0,11, 0.00,60.00,Thursday
25,277446407.54384616
757,6791184.0
1870,277446407.54384616
2,5, 1, 5, 0,12, 0.00,60.00,Thursday
25,294343444.36523786
757,15947953.466397997
1870,294343444.36523786
2,5, 1, 5, 0,13, 0.00,60.00,Thursday
25,297921166.9471686
757,25840592.208867998
1870,297921166.9471686
2,5, 1, 5, 0,14, 0.00,60.00,Thursday
25,303877589.02982029
757,25620958.350029269
1870,303877589.0298202
2,5, 1, 5, 0,15, 0.00,60.00,Thursday
25,286909412.48552408
757,15515536.1331169
1870,286909412.48552408
2,5, 1, 5, 0,16, 0.00,60.00,Thursday
25,280872899.0932533
757,15483033.470145975
1870,280872899.09325328
2,5, 1, 5, 0,17, 0.00,60.00,Thursday
25,289057541.78434219
757,20387261.52856378
1870,289057541.7843421
2,5, 1, 5, 0,18, 0.00,60.00,Thursday
25,227350771.43573243
757,11037115.084068967
1870,227350771.43573243
2,5, 1, 5, 0,19, 0.00,60.00,Thursday
25,128969500.35159292
757,10976120.28958008
1870,128969500.3515929
2,5, 1, 5, 0,20, 0.00,60.00,Thursday
25,111570869.92694804
757,11717013.739264947
1870,111570869.926948
2,5, 1, 5, 0,21, 0.00,60.00,Thursday
25,100912160.59971816
757,24584312.16649389
1870,100912160.59971816
2,5, 1, 5, 0,22, 0.00,60.00,Thursday
25,96269263.15284068
757,17687705.79635339
1870,96269263.15284068
2,5, 1, 5, 0,23, 0.00,60.00,Thursday
25,77772390.65670999
757,6791184.0
1870,77772390.65670999
2,5, 1, 5, 0,24, 0.00,60.00,Thursday
25,72442274.24247962
757,6791184.0
1870,72442274.24247962
2,6, 1, 6, 0, 1, 0.00,60.00,Friday
25,57996196.7332391
757,6791184.0
1870,57996196.7332391
2,6, 1, 6, 0, 2, 0.00,60.00,Friday
25,57609860.1137362
757,6791184.0
1870,57609860.1137362
2,6, 1, 6, 0, 3, 0.00,60.00,Friday
25,57609860.1137362
757,6791184.0
1870,57609860.1137362
2,6, 1, 6, 0, 4, 0.00,60.00,Friday
25,57609860.1137362
757,6791184.0
1870,57609860.1137362
2,6, 1, 6, 0, 5, 0.00,60.00,Friday
25,57609860.1137362
757,6791184.0
1870,57609860.1137362
2,6, 1, 6, 0, 6, 0.00,60.00,Friday
25,57609860.1137362
757,6791184.0
1870,57609860.1137362
2,6, 1, 6, 0, 7, 0.00,60.00,Friday
25,89031873.46655844
757,36502318.7329746
1870,89031873.46655846
2,6, 1, 6, 0, 8, 0.00,60.00,Friday
25,153524758.76961053
757,30183589.163552129
1870,153524758.7696105
2,6, 1, 6, 0, 9, 0.00,60.00,Friday
25,298434387.93522796
757,12252899.216426349
1870,298434387.93522796
2,6, 1, 6, 0,10, 0.00,60.00,Friday
25,275850355.2464192
757,6791184.0
1870,275850355.24641916
2,6, 1, 6, 0,11, 0.00,60.00,Friday
25,285567248.7970781
757,6791184.0
1870,285567248.797078
2,6, 1, 6, 0,12, 0.00,60.00,Friday
25,302777569.39434757
757,15948574.021569062
1870,302777569.3943475
2,6, 1, 6, 0,13, 0.00,60.00,Friday
25,305210494.9401276
757,25842245.342319378
1870,305210494.9401276
2,6, 1, 6, 0,14, 0.00,60.00,Friday
25,315492547.8929341
757,25622474.953630777
1870,315492547.8929341
2,6, 1, 6, 0,15, 0.00,60.00,Friday
25,300173006.7838918
757,15516044.492671866
1870,300173006.7838918
2,6, 1, 6, 0,16, 0.00,60.00,Friday
25,295104532.6602999
757,15483196.284969639
1870,295104532.6602999
2,6, 1, 6, 0,17, 0.00,60.00,Friday
25,304317622.24276486
757,20387582.940831625
1870,304317622.2427648
2,6, 1, 6, 0,18, 0.00,60.00,Friday
25,231229635.2437185
757,14452550.222945175
1870,231229635.24371854
2,6, 1, 6, 0,19, 0.00,60.00,Friday
25,129218414.58149392
757,22025520.623484456
1870,129218414.58149389
2,6, 1, 6, 0,20, 0.00,60.00,Friday
25,111634674.52239494
757,22351527.254816425
1870,111634674.5223949
2,6, 1, 6, 0,21, 0.00,60.00,Friday
25,100912160.59971816
757,29515094.47837407
1870,100912160.59971816
2,6, 1, 6, 0,22, 0.00,60.00,Friday
25,96269263.15284068
757,25075297.643280936
1870,96269263.15284068
2,6, 1, 6, 0,23, 0.00,60.00,Friday
25,77772390.65670999
757,6791184.0
1870,77772390.65670999
2,6, 1, 6, 0,24, 0.00,60.00,Friday
25,72442274.24247962
757,6791184.0
1870,72442274.24247962
2,7, 1, 7, 0, 1, 0.00,60.00,Saturday
25,46745513.81922844
757,6791184.0
1870,46745513.81922843
2,7, 1, 7, 0, 2, 0.00,60.00,Saturday
25,46359235.70955593
757,6791184.0
1870,46359235.709555927
2,7, 1, 7, 0, 3, 0.00,60.00,Saturday
25,46359235.70955593
757,6791184.0
1870,46359235.709555927
2,7, 1, 7, 0, 4, 0.00,60.00,Saturday
25,46359235.70955593
757,6791184.0
1870,46359235.709555927
2,7, 1, 7, 0, 5, 0.00,60.00,Saturday
25,46359235.70955593
757,6791184.0
1870,46359235.709555927
2,7, 1, 7, 0, 6, 0.00,60.00,Saturday
25,46359235.70955593
757,6791184.0
1870,46359235.709555927
2,7, 1, 7, 0, 7, 0.00,60.00,Saturday
25,89103054.3395365
757,57883333.17901482
1870,89103054.33953654
2,7, 1, 7, 0, 8, 0.00,60.00,Saturday
25,102187846.46803165
757,50731755.45116907
1870,102187846.46803165
2,7, 1, 7, 0, 9, 0.00,60.00,Saturday
25,123434958.95211439
757,10313735.283549849
1870,123434958.95211436
2,7, 1, 7, 0,10, 0.00,60.00,Saturday
25,142907762.51286195
757,6791184.0
1870,142907762.51286195
2,7, 1, 7, 0,11, 0.00,60.00,Saturday
25,152485684.73935835
757,6791184.0
1870,152485684.73935835
2,7, 1, 7, 0,12, 0.00,60.00,Saturday
25,168710523.00585933
757,6791184.0
1870,168710523.00585933
2,7, 1, 7, 0,13, 0.00,60.00,Saturday
25,124738221.57481474
757,6791184.0
1870,124738221.57481474
2,7, 1, 7, 0,14, 0.00,60.00,Saturday
25,108176546.96542917
757,6791184.0
1870,108176546.96542917
2,7, 1, 7, 0,15, 0.00,60.00,Saturday
25,92357772.79978529
757,6791184.0
1870,92357772.79978529
2,7, 1, 7, 0,16, 0.00,60.00,Saturday
25,78130398.6297321
757,6791184.0
1870,78130398.62973212
2,7, 1, 7, 0,17, 0.00,60.00,Saturday
25,80347675.61505676
757,6791184.0
1870,80347675.61505676
2,7, 1, 7, 0,18, 0.00,60.00,Saturday
25,81078498.19044632
757,6791184.0
1870,81078498.19044636
2,7, 1, 7, 0,19, 0.00,60.00,Saturday
25,66276703.53612528
757,6791184.0
1870,66276703.53612528
2,7, 1, 7, 0,20, 0.00,60.00,Saturday
25,49290893.81922844
757,6791184.0
1870,49290893.81922844
2,7, 1, 7, 0,21, 0.00,60.00,Saturday
25,48904615.70955593
757,6791184.0
1870,48904615.70955593
2,7, 1, 7, 0,22, 0.00,60.00,Saturday
25,48904615.70955593
757,6791184.0
1870,48904615.70955593
2,7, 1, 7, 0,23, 0.00,60.00,Saturday
25,48904615.70955593
757,6791184.0
1870,48904615.70955593
2,7, 1, 7, 0,24, 0.00,60.00,Saturday
25,48904615.70955593
757,6791184.0
1870,48904615.70955593
2,8, 1, 8, 0, 1, 0.00,60.00,Sunday
25,46359235.70955593
757,6791184.0
1870,46359235.709555927
2,8, 1, 8, 0, 2, 0.00,60.00,Sunday
25,46359235.70955593
757,6791184.0
1870,46359235.709555927
2,8, 1, 8, 0, 3, 0.00,60.00,Sunday
25,46359235.70955593
757,6791184.0
1870,46359235.709555927
2,8, 1, 8, 0, 4, 0.00,60.00,Sunday
25,46359235.70955593
757,6791184.0
1870,46359235.709555927
2,8, 1, 8, 0, 5, 0.00,60.00,Sunday
25,46359235.70955593
757,6791184.0
1870,46359235.709555927
2,8, 1, 8, 0, 6, 0.00,60.00,Sunday
25,46359235.70955593
757,6791184.0
1870,46359235.709555927
2,8, 1, 8, 0, 7, 0.00,60.00,Sunday
25,62835260.56584349
757,6791184.0
1870,62835260.56584349
2,8, 1, 8, 0, 8, 0.00,60.00,Sunday
25,46636956.98861474
757,6791184.0
1870,46636956.98861474
2,8, 1, 8, 0, 9, 0.00,60.00,Sunday
25,46346575.85160996
757,6791184.0
1870,46346575.85160995
2,8, 1, 8, 0,10, 0.00,60.00,Sunday
25,46288814.02369006
757,6791184.0
1870,46288814.02369006
2,8, 1, 8, 0,11, 0.00,60.00,Sunday
25,46288812.51597283
757,6791184.0
1870,46288812.51597283
2,8, 1, 8, 0,12, 0.00,60.00,Sunday
25,53865726.54404783
757,6791184.0
1870,53865726.54404783
2,8, 1, 8, 0,13, 0.00,60.00,Sunday
25,61049547.95158617
757,6791184.0
1870,61049547.95158617
2,8, 1, 8, 0,14, 0.00,60.00,Sunday
25,64617646.30946467
757,6791184.0
1870,64617646.30946468
2,8, 1, 8, 0,15, 0.00,60.00,Sunday
25,55405210.37798801
757,6791184.0
1870,55405210.37798801
2,8, 1, 8, 0,16, 0.00,60.00,Sunday
25,46340081.07936324
757,6791184.0
1870,46340081.079363238
2,8, 1, 8, 0,17, 0.00,60.00,Sunday
25,50045282.17486653
757,6791184.0
1870,50045282.17486654
2,8, 1, 8, 0,18, 0.00,60.00,Sunday
25,66276703.53612528
757,6791184.0
1870,66276703.53612528
2,8, 1, 8, 0,19, 0.00,60.00,Sunday
25,57105773.81922845
757,6791184.0
1870,57105773.81922844
2,8, 1, 8, 0,20, 0.00,60.00,Sunday
25,48904615.70955593
757,6791184.0
1870,48904615.70955593
2,8, 1, 8, 0,21, 0.00,60.00,Sunday
25,48904615.70955593
757,6791184.0
1870,48904615.70955593
2,8, 1, 8, 0,22, 0.00,60.00,Sunday
25,48904615.70955593
757,6791184.0
1870,48904615.70955593
2,8, 1, 8, 0,23, 0.00,60.00,Sunday
25,48904615.70955593
757,6791184.0
1870,48904615.70955593
2,8, 1, 8, 0,24, 0.00,60.00,Sunday
25,48904615.70955593
757,6791184.0
1870,48904615.70955593
2,9, 1, 9, 0, 1, 0.00,60.00,Monday
25,57609860.1137362
757,6791184.0
1870,57609860.1137362
2,9, 1, 9, 0, 2, 0.00,60.00,Monday
25,57609860.1137362
757,6791184.0
1870,57609860.1137362
2,9, 1, 9, 0, 3, 0.00,60.00,Monday
25,57609860.1137362
757,6791184.0
1870,57609860.1137362
2,9, 1, 9, 0, 4, 0.00,60.00,Monday
25,57609860.1137362
757,6791184.0
1870,57609860.1137362
2,9, 1, 9, 0, 5, 0.00,60.00,Monday
25,57609860.1137362
757,6791184.0
1870,57609860.1137362
2,9, 1, 9, 0, 6, 0.00,60.00,Monday
25,57609860.1137362
757,6791184.0
1870,57609860.1137362
2,9, 1, 9, 0, 7, 0.00,60.00,Monday
25,110399554.4451573
757,97294938.37019317
1870,110399554.44515728
2,9, 1, 9, 0, 8, 0.00,60.00,Monday
25,184275058.01351208
757,79653322.14334174
1870,184275058.01351206
2,9, 1, 9, 0, 9, 0.00,60.00,Monday
25,300204748.2301828
757,28782008.11056635
1870,300204748.2301828
2,9, 1, 9, 0,10, 0.00,60.00,Monday
25,263702947.02183364
757,7124949.2416017199
1870,263702947.02183358
2,9, 1, 9, 0,11, 0.00,60.00,Monday
25,268693352.6375942
757,6791184.0
1870,268693352.6375942
2,9, 1, 9, 0,12, 0.00,60.00,Monday
25,294630222.9599316
757,11371181.424068267
1870,294630222.95993158
2,9, 1, 9, 0,13, 0.00,60.00,Monday
25,298181556.9602644
757,25825341.783548237
1870,298181556.9602643
2,9, 1, 9, 0,14, 0.00,60.00,Monday
25,303615106.6531433
757,25626527.149781087
1870,303615106.6531433
2,9, 1, 9, 0,15, 0.00,60.00,Monday
25,284421836.05112347
757,15531575.965443641
1870,284421836.0511233
2,9, 1, 9, 0,16, 0.00,60.00,Monday
25,276691879.6100904
757,15504231.97810629
1870,276691879.6100903
2,9, 1, 9, 0,17, 0.00,60.00,Monday
25,286834395.40110018
757,20386048.96950016
1870,286834395.4011002
2,9, 1, 9, 0,18, 0.00,60.00,Monday
25,229150986.7920631
757,11037960.008258025
1870,229150986.79206313
2,9, 1, 9, 0,19, 0.00,60.00,Monday
25,128852065.36042437
757,16216100.889188979
1870,128852065.36042436
2,9, 1, 9, 0,20, 0.00,60.00,Monday
25,111570869.92694804
757,12015045.516593414
1870,111570869.926948
2,9, 1, 9, 0,21, 0.00,60.00,Monday
25,101046344.53409572
757,22730737.72080549
1870,101046344.53409572
2,9, 1, 9, 0,22, 0.00,60.00,Monday
25,97878857.09642256
757,48006715.40968601
1870,97878857.09642257
2,9, 1, 9, 0,23, 0.00,60.00,Monday
25,77772390.65670999
757,6791184.0
1870,77772390.65670999
2,9, 1, 9, 0,24, 0.00,60.00,Monday
25,72442274.24247962
757,6791184.0
1870,72442274.24247962
2,10, 1,10, 0, 1, 0.00,60.00,Tuesday
25,57996196.7332391
757,6791184.0
1870,57996196.7332391
2,10, 1,10, 0, 2, 0.00,60.00,Tuesday
25,57609860.1137362
757,6791184.0
1870,57609860.1137362
2,10, 1,10, 0, 3, 0.00,60.00,Tuesday
25,57609860.1137362
757,6791184.0
1870,57609860.1137362
2,10, 1,10, 0, 4, 0.00,60.00,Tuesday
25,57609860.1137362
757,6791184.0
1870,57609860.1137362
2,10, 1,10, 0, 5, 0.00,60.00,Tuesday
25,57609860.1137362
757,6791184.0
1870,57609860.1137362
2,10, 1,10, 0, 6, 0.00,60.00,Tuesday
25,57609860.1137362
757,6791184.0
1870,57609860.1137362
2,10, 1,10, 0, 7, 0.00,60.00,Tuesday
25,99096388.56917028
757,87531266.78934469
1870,99096388.56917027
2,10, 1,10, 0, 8, 0.00,60.00,Tuesday
25,166518757.53538717
757,65823382.92654243
1870,166518757.53538717
2,10, 1,10, 0, 9, 0.00,60.00,Tuesday
25,298494128.8689497
757,19688894.973413923
1870,298494128.8689497
2,10, 1,10, 0,10, 0.00,60.00,Tuesday
25,268938611.16185936
757,6791184.0
1870,268938611.1618593
2,10, 1,10, 0,11, 0.00,60.00,Tuesday
25,275511014.08584627
757,6791184.0
1870,275511014.0858462
2,10, 1,10, 0,12, 0.00,60.00,Tuesday
25,289210436.763315
757,15955842.029617574
1870,289210436.763315
2,10, 1,10, 0,13, 0.00,60.00,Tuesday
25,294841837.157707
757,25843008.18193672
1870,294841837.157707
2,10, 1,10, 0,14, 0.00,60.00,Tuesday
25,303690346.1367874
757,25627440.962022045
1870,303690346.13678738
2,10, 1,10, 0,15, 0.00,60.00,Tuesday
25,285832470.67357507
757,15550470.304432247
1870,285832470.673575
2,10, 1,10, 0,16, 0.00,60.00,Tuesday
25,273940935.55890169
757,15521584.198637438
1870,273940935.5589016
2,10, 1,10, 0,17, 0.00,60.00,Tuesday
25,286200723.3962961
757,20382915.54832778
1870,286200723.396296
2,10, 1,10, 0,18, 0.00,60.00,Tuesday
25,228799993.0419618
757,11030060.367982686
1870,228799993.0419618
2,10, 1,10, 0,19, 0.00,60.00,Tuesday
25,128967197.29935649
757,10982162.54243179
1870,128967197.29935649
2,10, 1,10, 0,20, 0.00,60.00,Tuesday
25,111570869.92694804
757,18920558.626331007
1870,111570869.926948
2,10, 1,10, 0,21, 0.00,60.00,Tuesday
25,100912160.59971816
757,44247326.07248583
1870,100912160.59971816
2,10, 1,10, 0,22, 0.00,60.00,Tuesday
25,96305161.11495908
757,55836950.61740461
1870,96305161.11495908
2,10, 1,10, 0,23, 0.00,60.00,Tuesday
25,77772390.65670999
757,6791184.0
1870,77772390.65670999
2,10, 1,10, 0,24, 0.00,60.00,Tuesday
25,72442274.24247962
757,6791184.0
1870,72442274.24247962
2,11, 1,11, 0, 1, 0.00,60.00,Wednesday
25,57996196.7332391
757,6791184.0
1870,57996196.7332391
2,11, 1,11, 0, 2, 0.00,60.00,Wednesday
25,57609860.1137362
757,6791184.0
1870,57609860.1137362
2,11, 1,11, 0, 3, 0.00,60.00,Wednesday
25,57609860.1137362
757,6791184.0
1870,57609860.1137362
2,11, 1,11, 0, 4, 0.00,60.00,Wednesday
25,57609860.1137362
757,6791184.0
1870,57609860.1137362
2,11, 1,11, 0, 5, 0.00,60.00,Wednesday
25,57609860.1137362
757,6791184.0
1870,57609860.1137362
2,11, 1,11, 0, 6, 0.00,60.00,Wednesday
25,57609860.1137362
757,6791184.0
1870,57609860.1137362
2,11, 1,11, 0, 7, 0.00,60.00,Wednesday
25,91421273.2715718
757,76783952.39098987
1870,91421273.27157182
2,11, 1,11, 0, 8, 0.00,60.00,Wednesday
25,159292866.68112377
757,60254099.97099616
1870,159292866.68112374
2,11, 1,11, 0, 9, 0.00,60.00,Wednesday
25,298862467.0752629
757,25334873.400537839
1870,298862467.0752629
2,11, 1,11, 0,10, 0.00,60.00,Wednesday
25,265665955.96106736
757,6969063.876944862
1870,265665955.96106736
2,11, 1,11, 0,11, 0.00,60.00,Wednesday
25,262252696.95464475
757,6791184.0
1870,262252696.9546447
2,11, 1,11, 0,12, 0.00,60.00,Wednesday
25,288206631.91377237
757,15959524.264943133
1870,288206631.9137723
2,11, 1,11, 0,13, 0.00,60.00,Wednesday
25,292513021.964639
757,25842909.94698789
1870,292513021.964639
2,11, 1,11, 0,14, 0.00,60.00,Wednesday
25,297829555.321422
757,25626620.043259756
1870,297829555.321422
2,11, 1,11, 0,15, 0.00,60.00,Wednesday
25,279850949.1828102
757,15549779.133609647
1870,279850949.18281009
2,11, 1,11, 0,16, 0.00,60.00,Wednesday
25,269514005.8411272
757,15517969.433488496
1870,269514005.8411271
2,11, 1,11, 0,17, 0.00,60.00,Wednesday
25,285607948.08269056
757,20381033.15476161
1870,285607948.0826905
2,11, 1,11, 0,18, 0.00,60.00,Wednesday
25,231931143.33036486
757,12601437.09813898
1870,231931143.33036486
2,11, 1,11, 0,19, 0.00,60.00,Wednesday
25,129132938.7837028
757,18853714.357550418
1870,129132938.78370279
2,11, 1,11, 0,20, 0.00,60.00,Wednesday
25,111585178.23520276
757,16395972.02157849
1870,111585178.23520272
2,11, 1,11, 0,21, 0.00,60.00,Wednesday
25,100912160.59971816
757,18945332.40391501
1870,100912160.59971816
2,11, 1,11, 0,22, 0.00,60.00,Wednesday
25,96269263.15284068
757,36598497.08604498
1870,96269263.15284068
2,11, 1,11, 0,23, 0.00,60.00,Wednesday
25,77772390.65670999
757,6791184.0
1870,77772390.65670999
2,11, 1,11, 0,24, 0.00,60.00,Wednesday
25,72442274.24247962
757,6791184.0
1870,72442274.24247962
2,12, 1,12, 0, 1, 0.00,60.00,Thursday
25,57996196.7332391
757,6791184.0
1870,57996196.7332391
2,12, 1,12, 0, 2, 0.00,60.00,Thursday
25,57609860.1137362
757,6791184.0
1870,57609860.1137362
2,12, 1,12, 0, 3, 0.00,60.00,Thursday
25,57609860.1137362
757,6791184.0
1870,57609860.1137362
2,12, 1,12, 0, 4, 0.00,60.00,Thursday
25,57609860.1137362
757,6791184.0
1870,57609860.1137362
2,12, 1,12, 0, 5, 0.00,60.00,Thursday
25,57609860.1137362
757,6791184.0
1870,57609860.1137362
2,12, 1,12, 0, 6, 0.00,60.00,Thursday
25,57609860.1137362
757,6791184.0
1870,57609860.1137362
2,12, 1,12, 0, 7, 0.00,60.00,Thursday
25,89025123.89808795
757,53274214.10524032
1870,89025123.89808798
2,12, 1,12, 0, 8, 0.00,60.00,Thursday
25,151803529.13134436
757,50491463.777907829
1870,151803529.13134433
2,12, 1,12, 0, 9, 0.00,60.00,Thursday
25,298586026.9248955
757,37240642.71956425
1870,298586026.9248955
2,12, 1,12, 0,10, 0.00,60.00,Thursday
25,266463609.31202735
757,11964717.754353859
1870,266463609.31202726
2,12, 1,12, 0,11, 0.00,60.00,Thursday
25,259815121.1621578
757,6791184.0
1870,259815121.1621578
2,12, 1,12, 0,12, 0.00,60.00,Thursday
25,282765370.2770448
757,12000762.283272652
1870,282765370.2770447
2,12, 1,12, 0,13, 0.00,60.00,Thursday
25,299693503.04407188
757,25895596.35126994
1870,299693503.04407188
2,12, 1,12, 0,14, 0.00,60.00,Thursday
25,308109725.4520747
757,24906398.958150694
1870,308109725.45207479
2,12, 1,12, 0,15, 0.00,60.00,Thursday
25,290818529.05363497
757,15534660.865219336
1870,290818529.05363497
2,12, 1,12, 0,16, 0.00,60.00,Thursday
25,292077640.0728487
757,15511873.306683768
1870,292077640.0728487
2,12, 1,12, 0,17, 0.00,60.00,Thursday
25,297993699.711511
757,20371541.60582843
1870,297993699.71151098
2,12, 1,12, 0,18, 0.00,60.00,Thursday
25,227843286.8247231
757,15308544.868590147
1870,227843286.8247231
2,12, 1,12, 0,19, 0.00,60.00,Thursday
25,129069758.16694817
757,6791184.0
1870,129069758.16694816
2,12, 1,12, 0,20, 0.00,60.00,Thursday
25,111577943.07040823
757,11030316.466910884
1870,111577943.07040818
2,12, 1,12, 0,21, 0.00,60.00,Thursday
25,100912160.59971816