Program Version,EnergyPlus, Version 9.0.1-bb7ca4f0da, YMD=2022.04.26 19:50
1,5,Environment Title[],Latitude[deg],Longitude[deg],Time Zone[],Elevation[m]
2,8,Day of Simulation[],Month[],Day of Month[],DST Indicator[1=yes 0=no],Hour[],StartMinute[],EndMinute[],DayType
3,5,Cumulative Day of Simulation[],Month[],Day of Month[],DST Indicator[1=yes 0=no],DayType  ! When Daily Report Variables Requested
4,2,Cumulative Days of Simulation[],Month[]  ! When Monthly Report Variables Requested
5,1,Cumulative Days of Simulation[] ! When Run Period Report Variables Requested
6,1,Calendar Year of Simulation[] ! When Annual Report Variables Requested
7,1,Environment,Site Outdoor Air Drybulb Temperature [C] !Hourly
2176,1,PACU_VAV_BOT,Air System Total Heating Energy [J] !Hourly
2177,1,PACU_VAV_BOT,Air System Total Cooling Energy [J] !Hourly
2178,1,PACU_VAV_MID,Air System Total Heating Energy [J] !Hourly
2179,1,PACU_VAV_MID,Air System Total Cooling Energy [J] !Hourly
2180,1,PACU_VAV_TOP,Air System Total Heating Energy [J] !Hourly
2181,1,PACU_VAV_TOP,Air System Total Cooling Energy [J] !Hourly
End of Data Dictionary
1,RUNPERIOD 1,  32.58,-116.98,  -8.00, 159.00
2,1, 1, 1, 0, 1, 0.00,60.00,Holiday
7,8.416666666666666
2176,0.0
2177,0.0
2178,0.0
2179,0.0
2180,0.0
2181,0.0
2,1, 1, 1, 0, 2, 0.00,60.00,Holiday
7,8.0
2176,0.0
2177,0.0
2178,0.0
2179,0.0
2180,0.0
2181,0.0
2,1, 1, 1, 0, 3, 0.00,60.00,Holiday
7,8.583333333333334
2176,0.0
2177,0.0
2178,0.0
2179,0.0
2180,0.0
2181,0.0
2,1, 1, 1, 0, 4, 0.00,60.00,Holiday
7,9.0
2176,0.0
2177,0.0
2178,0.0
2179,0.0
2180,0.0
2181,0.0
2,1, 1, 1, 0, 5, 0.00,60.00,Holiday
7,9.0
2176,0.0
2177,0.0
2178,0.0
2179,0.0
2180,0.0
2181,0.0
2,1, 1, 1, 0, 6, 0.00,60.00,Holiday
7,8.416666666666666
2176,0.0
2177,0.0
2178,0.0
2179,0.0
2180,0.0
2181,0.0
2,1, 1, 1, 0, 7, 0.00,60.00,Holiday
7,8.583333333333334
2176,0.0
2177,0.0
2178,0.0
2179,0.0
2180,0.0
2181,0.0
2,1, 1, 1, 0, 8, 0.00,60.00,Holiday
7,9.583333333333334
2176,0.0
2177,0.0
2178,0.0
2179,0.0
2180,0.0
2181,0.0
2,1, 1, 1, 0, 9, 0.00,60.00,Holiday
7,11.166666666666666
2176,0.0
2177,0.0
2178,0.0
2179,0.0
2180,0.0
2181,0.0
2,1, 1, 1, 0,10, 0.00,60.00,Holiday
7,12.583333333333334
2176,0.0
2177,0.0
2178,0.0
2179,0.0
2180,0.0
2181,0.0
2,1, 1, 1, 0,11, 0.00,60.00,Holiday
7,13.0
2176,0.0
2177,0.0
2178,0.0
2179,0.0
2180,0.0
2181,0.0
2,1, 1, 1, 0,12, 0.00,60.00,Holiday
7,13.0
2176,0.0
2177,0.0
2178,0.0
2179,0.0
2180,0.0
2181,0.0
2,1, 1, 1, 0,13, 0.00,60.00,Holiday
7,13.0
2176,0.0
2177,0.0
2178,0.0
2179,0.0
2180,0.0
2181,0.0
2,1, 1, 1, 0,14, 0.00,60.00,Holiday
7,13.0
2176,0.0
2177,0.0
2178,0.0
2179,0.0
2180,0.0
2181,0.0
2,1, 1, 1, 0,15, 0.00,60.00,Holiday
7,13.0
2176,0.0
2177,0.0
2178,0.0
2179,0.0
2180,0.0
2181,0.0
2,1, 1, 1, 0,16, 0.00,60.00,Holiday
7,13.0
2176,0.0
2177,0.0
2178,0.0
2179,0.0
2180,0.0
2181,0.0
2,1, 1, 1, 0,17, 0.00,60.00,Holiday
7,11.833333333333334
2176,0.0
2177,0.0
2178,0.0
2179,0.0
2180,0.0
2181,0.0
2,1, 1, 1, 0,18, 0.00,60.00,Holiday
7,11.0
2176,0.0
2177,0.0
2178,0.0
2179,0.0
2180,0.0
2181,0.0
2,1, 1, 1, 0,19, 0.00,60.00,Holiday
7,11.0
2176,0.0
2177,0.0
2178,0.0
2179,0.0
2180,0.0
2181,0.0
2,1, 1, 1, 0,20, 0.00,60.00,Holiday
7,11.0
2176,0.0
2177,0.0
2178,0.0
2179,0.0
2180,0.0
2181,0.0
2,1, 1, 1, 0,21, 0.00,60.00,Holiday
7,11.0
2176,0.0
2177,0.0
2178,0.0
2179,0.0
2180,0.0
2181,0.0
2,1, 1, 1, 0,22, 0.00,60.00,Holiday
7,11.0
2176,0.0
2177,0.0
2178,0.0
2179,0.0
2180,0.0
2181,0.0
2,1, 1, 1, 0,23, 0.00,60.00,Holiday
7,10.416666666666666
2176,0.0
2177,0.0
2178,0.0
2179,0.0
2180,0.0
2181,0.0
2,1, 1, 1, 0,24, 0.00,60.00,Holiday
7,9.416666666666666
2176,0.0
2177,0.0
2178,0.0
2179,0.0
2180,0.0
2181,0.0
2,2, 1, 2, 0, 1, 0.00,60.00,Monday
7,9.583333333333334
2176,0.0
2177,0.0
2178,0.0
2179,0.0
2180,0.0
2181,0.0
2,2, 1, 2, 0, 2, 0.00,60.00,Monday
7,9.416666666666666
2176,0.0
2177,0.0
2178,0.0
2179,0.0
2180,0.0
2181,0.0
2,2, 1, 2, 0, 3, 0.00,60.00,Monday
7,10.166666666666666
2176,0.0
2177,0.0
2178,0.0
2179,0.0
2180,0.0
2181,0.0
2,2, 1, 2, 0, 4, 0.00,60.00,Monday
7,10.416666666666666
2176,0.0
2177,0.0
2178,0.0
2179,0.0
2180,0.0
2181,0.0
2,2, 1, 2, 0, 5, 0.00,60.00,Monday
7,10.583333333333334
2176,0.0
2177,0.0
2178,0.0
2179,0.0
2180,0.0
2181,0.0
2,2, 1, 2, 0, 6, 0.00,60.00,Monday
7,11.0
2176,0.0
2177,0.0
2178,0.0
2179,0.0
2180,0.0
2181,0.0
2,2, 1, 2, 0, 7, 0.00,60.00,Monday
7,11.0
2176,2976386.6709981688
2177,0.0
2178,4988408.925280848
2179,0.0
2180,26497912.703742595
2181,0.0
2,2, 1, 2, 0, 8, 0.00,60.00,Monday
7,11.0
2176,22686734.870662758
2177,0.0
2178,17152927.277467956
2179,0.0
2180,53199353.93871087
2181,0.0
2,2, 1, 2, 0, 9, 0.00,60.00,Monday
7,12.166666666666666
2176,6509004.018473989
2177,0.0
2178,2609987.826358971
2179,0.0
2180,9398137.613846342
2181,0.0
2,2, 1, 2, 0,10, 0.00,60.00,Monday
7,13.0
2176,3893790.5110502757
2177,0.0
2178,2438503.370013772
2179,0.0
2180,2984695.431603907
2181,0.0
2,2, 1, 2, 0,11, 0.00,60.00,Monday
7,14.166666666666666
2176,3690173.661181328
2177,3284844.1979158718
2178,2604324.927838287
2179,2410962.833992609
2180,2579826.8738216746
2181,2435401.317181951
2,2, 1, 2, 0,12, 0.00,60.00,Monday
7,14.416666666666666
2176,4240503.9989182199
2177,4265671.901422419
2178,3241685.9997054536
2179,3218723.0198239705
2180,2937022.2960653656
2181,3042367.9667018207
2,2, 1, 2, 0,13, 0.00,60.00,Monday
7,14.0
2176,4430519.23893671
2177,0.0
2178,3131903.5646530475
2179,0.0
2180,3104760.96851743
2181,0.0
2,2, 1, 2, 0,14, 0.00,60.00,Monday
7,14.0
2176,4803808.014566232
2177,0.0
2178,3468232.2644139139
2179,0.0
2180,3212839.9322087636
2181,0.0
2,2, 1, 2, 0,15, 0.00,60.00,Monday
7,13.416666666666666
2176,4528518.205717153
2177,0.0
2178,3205672.2663452706
2179,0.0
2180,3177355.134423575
2181,0.0
2,2, 1, 2, 0,16, 0.00,60.00,Monday
7,13.0
2176,4586019.5811100159
2177,0.0
2178,3270867.250600791
2179,0.0
2180,3012710.636048468
2181,0.0
2,2, 1, 2, 0,17, 0.00,60.00,Monday
7,11.833333333333334
2176,5217988.226698533
2177,0.0
2178,2702617.7573381729
2179,0.0
2180,2588757.0686278964
2181,0.0
2,2, 1, 2, 0,18, 0.00,60.00,Monday
7,9.833333333333334
2176,17550671.11637106
2177,0.0
2178,7124434.582905898
2179,0.0
2180,6973340.831494441
2181,0.0
2,2, 1, 2, 0,19, 0.00,60.00,Monday
7,9.0
2176,9150077.509426602
2177,628917.8726166667
2178,10270307.24139159
2179,0.0
2180,12262497.261367152
2181,0.0
2,2, 1, 2, 0,20, 0.00,60.00,Monday
7,7.833333333333333
2176,13099644.377904747
2177,0.0
2178,14184173.218402017
2179,0.0
2180,19994703.07388571
2181,0.0
2,2, 1, 2, 0,21, 0.00,60.00,Monday
7,6.416666666666667
2176,18607867.129888387
2177,0.0
2178,19828550.363468544
2179,0.0
2180,28879623.51841487
2181,0.0
2,2, 1, 2, 0,22, 0.00,60.00,Monday
7,6.583333333333333
2176,18730535.615958178
2177,0.0
2178,20417190.950103836
2179,0.0
2180,31792397.60381704
2181,0.0
2,2, 1, 2, 0,23, 0.00,60.00,Monday
7,6.416666666666667
2176,0.0
2177,0.0
2178,0.0
2179,0.0
2180,0.0
2181,0.0
2,2, 1, 2, 0,24, 0.00,60.00,Monday
7,6.583333333333333
2176,0.0
2177,0.0
2178,0.0
2179,0.0
2180,0.0
2181,0.0
2,3, 1, 3, 0, 1, 0.00,60.00,Tuesday
7,6.416666666666667
2176,0.0
2177,0.0
2178,0.0
2179,0.0
2180,0.0
2181,0.0
2,3, 1, 3, 0, 2, 0.00,60.00,Tuesday
7,4.25
2176,0.0
2177,0.0
2178,0.0
2179,0.0
2180,0.0
2181,0.0
2,3, 1, 3, 0, 3, 0.00,60.00,Tuesday
7,4.166666666666667
2176,0.0
2177,0.0
2178,0.0
2179,0.0
2180,0.0
2181,0.0
2,3, 1, 3, 0, 4, 0.00,60.00,Tuesday
7,4.416666666666667
2176,0.0
2177,0.0
2178,0.0
2179,0.0
2180,0.0
2181,0.0
2,3, 1, 3, 0, 5, 0.00,60.00,Tuesday
7,3.4166666666666667
2176,0.0
2177,0.0
2178,0.0
2179,0.0
2180,0.0
2181,0.0
2,3, 1, 3, 0, 6, 0.00,60.00,Tuesday
7,4.166666666666667
2176,0.0
2177,0.0
2178,0.0
2179,0.0
2180,0.0
2181,0.0
2,3, 1, 3, 0, 7, 0.00,60.00,Tuesday
7,3.8333333333333337
2176,19208368.199415808
2177,0.0
2178,28054316.94177886
2179,0.0
2180,54113984.914227899
2181,0.0
2,3, 1, 3, 0, 8, 0.00,60.00,Tuesday
7,5.333333333333333
2176,40279262.79561433
2177,0.0
2178,32536353.39148961
2179,0.0
2180,64276603.96896953
2181,0.0
2,3, 1, 3, 0, 9, 0.00,60.00,Tuesday
7,9.333333333333334
2176,7899335.0798868299
2177,0.0
2178,10050329.947451052
2179,0.0
2180,18035859.30276872
2181,0.0
2,3, 1, 3, 0,10, 0.00,60.00,Tuesday
7,12.166666666666666
2176,4602226.26280131
2177,0.0
2178,2845712.1629411198
2179,0.0
2180,3428067.391156645
2181,0.0
2,3, 1, 3, 0,11, 0.00,60.00,Tuesday
7,14.166666666666666
2176,4406178.089847214
2177,3387613.634737959
2178,2986777.227553014
2179,2359054.2231742648
2180,2853912.0013185709
2181,2346419.3504751
2,3, 1, 3, 0,12, 0.00,60.00,Tuesday
7,16.75
2176,4916391.457241926
2177,29921416.803742358
2178,3559043.7346010857
2179,21679358.59481813
2180,3183906.931597245
2181,20392915.570967169
2,3, 1, 3, 0,13, 0.00,60.00,Tuesday
7,18.583333333333333
2176,4529517.170756995
2177,47093615.59928846
2178,3339752.463433975
2179,34544063.17364217
2180,3322073.809253946
2181,34934697.01020177
2,3, 1, 3, 0,14, 0.00,60.00,Tuesday
7,17.833333333333333
2176,5723940.404445105
2177,46103898.806802477
2178,3785808.6253967985
2179,31584516.14077825
2180,3498439.6444211218
2181,30527400.325246399
2,3, 1, 3, 0,15, 0.00,60.00,Tuesday
7,17.583333333333333
2176,5244984.155590128
2177,40866848.17752284
2178,3577132.9934345067
2179,28389745.94415027
2180,3532711.389373242
2181,28716575.225151555
2,3, 1, 3, 0,16, 0.00,60.00,Tuesday
7,17.416666666666669
2176,5320803.125126616
2177,39285361.15434782
2178,3676619.9721308595
2179,27646412.807116447
2180,3385466.855517717
2181,26560086.13401805
2,3, 1, 3, 0,17, 0.00,60.00,Tuesday
7,14.666666666666666
2176,5868190.770752393
2177,11006759.914109277
2178,2983878.56106543
2179,6642344.325058068
2180,2818225.4934048366
2181,6569676.34714717
2,3, 1, 3, 0,18, 0.00,60.00,Tuesday
7,13.0
2176,8211152.449416449
2177,0.0
2178,2435446.2229700644
2179,0.0
2180,2447643.050901232
2181,0.0
2,3, 1, 3, 0,19, 0.00,60.00,Tuesday
7,11.833333333333334
2176,2955100.1970282418
2177,0.0
2178,2435446.2229700658
2179,0.0
2180,2618571.5355921669
2181,0.0
2,3, 1, 3, 0,20, 0.00,60.00,Tuesday
7,11.583333333333334
2176,2955100.1970282315
2177,0.0
2178,2435446.2229700686
2179,0.0
2180,2532145.096165577
2181,0.0
2,3, 1, 3, 0,21, 0.00,60.00,Tuesday
7,10.833333333333334
2176,3698876.610277114
2177,0.0
2178,3955619.99754426
2179,0.0
2180,6352700.256616369
2181,0.0
2,3, 1, 3, 0,22, 0.00,60.00,Tuesday
7,8.833333333333334
2176,9649181.487227839
2177,0.0
2178,10673328.611759317
2179,0.0
2180,15782501.47685991
2181,0.0
2,3, 1, 3, 0,23, 0.00,60.00,Tuesday
7,9.75
2176,0.0
2177,0.0
2178,0.0
2179,0.0
2180,0.0
2181,0.0
2,3, 1, 3, 0,24, 0.00,60.00,Tuesday
7,9.25
2176,0.0
2177,0.0
2178,0.0
2179,0.0
2180,0.0
2181,0.0
2,4, 1, 4, 0, 1, 0.00,60.00,Wednesday
7,8.0
2176,0.0
2177,0.0
2178,0.0
2179,0.0
2180,0.0
2181,0.0
2,4, 1, 4, 0, 2, 0.00,60.00,Wednesday
7,8.583333333333334
2176,0.0
2177,0.0
2178,0.0
2179,0.0
2180,0.0
2181,0.0
2,4, 1, 4, 0, 3, 0.00,60.00,Wednesday
7,10.166666666666666
2176,0.0
2177,0.0
2178,0.0
2179,0.0
2180,0.0
2181,0.0
2,4, 1, 4, 0, 4, 0.00,60.00,Wednesday
7,9.25
2176,0.0
2177,0.0
2178,0.0
2179,0.0
2180,0.0
2181,0.0
2,4, 1, 4, 0, 5, 0.00,60.00,Wednesday
7,6.25
2176,0.0
2177,0.0
2178,0.0
2179,0.0
2180,0.0
2181,0.0
2,4, 1, 4, 0, 6, 0.00,60.00,Wednesday
7,6.166666666666667
2176,0.0
2177,0.0
2178,0.0
2179,0.0
2180,0.0
2181,0.0
2,4, 1, 4, 0, 7, 0.00,60.00,Wednesday
7,7.583333333333333
2176,13992624.522076805
2177,0.0
2178,15214166.626722813
2179,0.0
2180,25608278.264367425
2181,0.0
2,4, 1, 4, 0, 8, 0.00,60.00,Wednesday
7,10.333333333333334
2176,19002310.125825496
2177,361678.68397000207
2178,6993574.609733277
2179,0.0
2180,22652865.65345874
2181,0.0
2,4, 1, 4, 0, 9, 0.00,60.00,Wednesday
7,13.166666666666666
2176,6920234.970633234
2177,0.0
2178,2673090.1491922338
2179,0.0
2180,2606689.445073695
2181,0.0
2,4, 1, 4, 0,10, 0.00,60.00,Wednesday
7,15.75
2176,5201501.291813308
2177,19895684.369643094
2178,3263524.7471681425
2179,12947018.63750979
2180,2710427.5957974197
2181,11189703.390074514
2,4, 1, 4, 0,11, 0.00,60.00,Wednesday
7,17.583333333333333
2176,5162300.076981989
2177,40278741.83704178
2178,3374500.487692466
2179,27134987.648386465
2180,3097852.0446171497
2181,25730110.71376262
2,4, 1, 4, 0,12, 0.00,60.00,Wednesday
7,18.583333333333333
2176,5846360.130865374
2177,55891006.120444949
2178,3810560.0869195584
2179,37825345.35794419
2180,3472797.8496250316
2181,36102693.13302686
2,4, 1, 4, 0,13, 0.00,60.00,Wednesday
7,19.0
2176,5237950.393043798
2177,56842047.65256031
2178,3550011.4192054059
2179,39375598.43995037
2180,3580616.7172519338
2181,40328646.644360799
2,4, 1, 4, 0,14, 0.00,60.00,Wednesday
7,19.583333333333333
2176,6679224.236618043
2177,73801764.90910332
2178,3885326.907434603
2179,46771112.364495638
2180,3728994.09523658
2181,46412118.709590528
2,4, 1, 4, 0,15, 0.00,60.00,Wednesday
7,19.416666666666669
2176,6211152.990814356
2177,68594434.87749775
2178,4017023.4878151866
2179,46308399.062715169
2180,3883302.206249363
2181,46315994.206322509
2,4, 1, 4, 0,16, 0.00,60.00,Wednesday
7,18.416666666666669
2176,6374216.2644460429
2177,56929491.7794475
2178,4303240.002852559
2179,39626982.68266018
2180,3712507.860780062
2181,36656362.87571965
2,4, 1, 4, 0,17, 0.00,60.00,Wednesday
7,16.833333333333333
2176,6779050.15942672
2177,38172562.66800387
2178,3668641.309458132
2179,23202611.59675768
2180,3080909.235239193
2181,21206709.677178105
2,4, 1, 4, 0,18, 0.00,60.00,Wednesday
7,15.416666666666666
2176,5608521.803908869
2177,17152186.37078364
2178,2472562.228468393
2179,9249967.883896307
2180,2454907.07002717
2181,9334277.193995044
2,4, 1, 4, 0,19, 0.00,60.00,Wednesday
7,14.416666666666666
2176,2970766.9542350328
2177,3166845.0014682707
2178,2435446.222970065
2179,2510971.1035383294
2180,2447643.050901237
2181,2564452.3129097635
2,4, 1, 4, 0,20, 0.00,60.00,Wednesday
7,11.666666666666666
2176,3172211.4471963208
2177,0.0
2178,3093321.990753539
2179,0.0
2180,3670932.2370038188
2181,0.0
2,4, 1, 4, 0,21, 0.00,60.00,Wednesday
7,10.583333333333334
2176,3093046.0057644259
2177,0.0
2178,3557785.555511513
2179,0.0
2180,5547369.43752069
2181,0.0
2,4, 1, 4, 0,22, 0.00,60.00,Wednesday
7,10.416666666666666
2176,3733271.630008335
2177,0.0
2178,4268288.666258006
2179,0.0
2180,6888612.775982862
2181,0.0
2,4, 1, 4, 0,23, 0.00,60.00,Wednesday
7,11.166666666666666
2176,0.0
2177,0.0
2178,0.0
2179,0.0
2180,0.0
2181,0.0
2,4, 1, 4, 0,24, 0.00,60.00,Wednesday
7,9.666666666666666
2176,0.0
2177,0.0
2178,0.0
2179,0.0
2180,0.0
2181,0.0
2,5, 1, 5, 0, 1, 0.00,60.00,Thursday
7,8.583333333333334
2176,0.0
2177,0.0
2178,0.0
2179,0.0
2180,0.0
2181,0.0
2,5, 1, 5, 0, 2, 0.00,60.00,Thursday
7,7.833333333333333
2176,0.0
2177,0.0
2178,0.0
2179,0.0
2180,0.0
2181,0.0
2,5, 1, 5, 0, 3, 0.00,60.00,Thursday
7,6.416666666666667
2176,0.0
2177,0.0
2178,0.0
2179,0.0
2180,0.0
2181,0.0
2,5, 1, 5, 0, 4, 0.00,60.00,Thursday
7,6.583333333333333
2176,0.0
2177,0.0
2178,0.0
2179,0.0
2180,0.0
2181,0.0
2,5, 1, 5, 0, 5, 0.00,60.00,Thursday
7,7.0
2176,0.0
2177,0.0
2178,0.0
2179,0.0
2180,0.0
2181,0.0
2,5, 1, 5, 0, 6, 0.00,60.00,Thursday
7,7.583333333333333
2176,0.0
2177,0.0
2178,0.0
2179,0.0
2180,0.0
2181,0.0
2,5, 1, 5, 0, 7, 0.00,60.00,Thursday
7,6.25
2176,16713852.231513557
2177,0.0
2178,18374196.22523146
2179,0.0
2180,24363093.70730171
2181,0.0
2,5, 1, 5, 0, 8, 0.00,60.00,Thursday
7,7.333333333333333
2176,24126039.15762842
2177,0.0
2178,15243891.57796551
2179,0.0
2180,30795578.925630966
2181,0.0
2,5, 1, 5, 0, 9, 0.00,60.00,Thursday
7,11.333333333333334
2176,8830509.058867824
2177,0.0
2178,4020897.549384242
2179,0.0
2180,5904530.695854937
2181,0.0
2,5, 1, 5, 0,10, 0.00,60.00,Thursday
7,14.75
2176,6057737.659614787
2177,10576484.030352977
2178,3408617.101983281
2179,6445704.012687021
2180,2775424.8105608078
2181,5488801.192021627
2,5, 1, 5, 0,11, 0.00,60.00,Thursday
7,16.583333333333333
2176,5974067.770066493
2177,32065026.776141094
2178,3588787.517079765
2179,20458061.976331779
2180,3171548.631510998
2181,18902924.91388703
2,5, 1, 5, 0,12, 0.00,60.00,Thursday
7,17.525000000000003
2176,6721804.065592255
2177,47053453.28239365
2178,4032049.452959871
2179,30301424.82228851
2180,3585535.9310395994
2181,28496349.943493047
2,5, 1, 5, 0,13, 0.00,60.00,Thursday
7,17.958333333333333
2176,5742818.902616915
2177,47983719.65190185
2178,3577701.455431282
2179,31971474.7638581
2180,3705809.740977404
2181,33728763.159243147
2,5, 1, 5, 0,14, 0.00,60.00,Thursday
7,17.416666666666669
2176,7856083.475885366
2177,50557711.00789369
2178,4410130.418022746
2179,32146691.95701649
2180,3839550.3527396034
2181,31506526.2537048
2,5, 1, 5, 0,15, 0.00,60.00,Thursday
7,16.591666666666666
2176,7370768.390217325
2177,40740023.34459747
2178,4847540.27127482
2179,27830573.05230871
2180,4109230.9458265856
2181,26799333.277117835
2,5, 1, 5, 0,16, 0.00,60.00,Thursday
7,15.483333333333335
2176,7616170.686968235
2177,27422245.326167428
2178,5407857.804326654
2179,19515781.013240786
2180,4195492.516731299
2181,17498289.03375198
2,5, 1, 5, 0,17, 0.00,60.00,Thursday
7,13.791666666666666
2176,8258678.301855941
2177,3538984.8167183466
2178,4593094.201632909
2179,2138444.9990345977
2180,3631786.5850023545
2181,1732737.0327381935
2,5, 1, 5, 0,18, 0.00,60.00,Thursday
7,12.416666666666666
2176,8153440.6513920309
2177,0.0
2178,2502788.590320684
2179,0.0
2180,2461969.2593351288
2181,0.0
2,5, 1, 5, 0,19, 0.00,60.00,Thursday
7,11.416666666666666
2176,3253035.6912225566
2177,0.0
2178,2435446.2229700519
2179,0.0
2180,2447643.050901213
2181,0.0
2,5, 1, 5, 0,20, 0.00,60.00,Thursday
7,10.416666666666666
2176,2955100.1970282357
2177,0.0
2178,3572906.2055771697
2179,0.0
2180,5300105.15709874
2181,0.0
2,5, 1, 5, 0,21, 0.00,60.00,Thursday
7,9.416666666666666
2176,5326028.487449494
2177,0.0
2178,7229454.93190522
2179,0.0
2180,9695139.866404992
2181,0.0
2,5, 1, 5, 0,22, 0.00,60.00,Thursday
7,10.166666666666666
2176,4287223.840286893
2177,0.0
2178,4811356.552779162
2179,0.0
2180,7565791.732879764
2181,0.0
2,5, 1, 5, 0,23, 0.00,60.00,Thursday
7,9.833333333333334
2176,0.0
2177,0.0
2178,0.0
2179,0.0
2180,0.0
2181,0.0
2,5, 1, 5, 0,24, 0.00,60.00,Thursday
7,7.25
2176,0.0
2177,0.0
2178,0.0
2179,0.0
2180,0.0
2181,0.0
2,6, 1, 6, 0, 1, 0.00,60.00,Friday
7,6.583333333333333
2176,0.0
2177,0.0
2178,0.0
2179,0.0
2180,0.0
2181,0.0
2,6, 1, 6, 0, 2, 0.00,60.00,Friday
7,7.583333333333333
2176,0.0
2177,0.0
2178,0.0
2179,0.0
2180,0.0
2181,0.0
2,6, 1, 6, 0, 3, 0.00,60.00,Friday
7,8.0
2176,0.0
2177,0.0
2178,0.0
2179,0.0
2180,0.0
2181,0.0
2,6, 1, 6, 0, 4, 0.00,60.00,Friday
7,10.333333333333334
2176,0.0
2177,0.0
2178,0.0
2179,0.0
2180,0.0
2181,0.0
2,6, 1, 6, 0, 5, 0.00,60.00,Friday
7,9.666666666666666
2176,0.0
2177,0.0
2178,0.0
2179,0.0
2180,0.0
2181,0.0
2,6, 1, 6, 0, 6, 0.00,60.00,Friday
7,8.583333333333334
2176,0.0
2177,0.0
2178,0.0
2179,0.0
2180,0.0
2181,0.0
2,6, 1, 6, 0, 7, 0.00,60.00,Friday
7,9.0
2176,8355099.478163988
2177,0.0
2178,9391708.03520668
2179,0.0
2180,14157401.09123832
2181,0.0
2,6, 1, 6, 0, 8, 0.00,60.00,Friday
7,9.0
2176,17718931.017231056
2177,0.0
2178,9748787.221300362
2179,0.0
2180,21097426.196636794
2181,0.0
2,6, 1, 6, 0, 9, 0.00,60.00,Friday
7,11.333333333333334
2176,9577873.943262706
2177,0.0
2178,4031481.374649108
2179,0.0
2180,5664751.850827532
2181,0.0
2,6, 1, 6, 0,10, 0.00,60.00,Friday
7,15.333333333333334
2176,6425569.240710099
2177,18162848.18990756
2178,3652848.4400054535
2179,11261272.399972873
2180,2791297.665340786
2181,9196764.561912364
2,6, 1, 6, 0,11, 0.00,60.00,Friday
7,17.583333333333333
2176,6305268.446289657
2177,45769704.953287627
2178,3874977.670415222
2179,29866199.950984099
2180,3228125.002115785
2181,26574702.81091183
2,6, 1, 6, 0,12, 0.00,60.00,Friday
7,18.583333333333333
2176,7050728.686668148
2177,62436878.764021027
2178,4300787.597198686
2179,40854074.98948119
2180,3614823.664667457
2181,37124346.7555108
2,6, 1, 6, 0,13, 0.00,60.00,Friday
7,19.0
2176,6212878.631020662
2177,63164799.76359899
2178,3605265.764071741
2179,39704912.02672756
2180,3692625.0874121829
2181,41139311.39338809
2,6, 1, 6, 0,14, 0.00,60.00,Friday
7,19.0
2176,8152480.681153171
2177,73835588.2266948
2178,4733361.313484477
2179,47226240.641516748
2180,3923325.1539192779
2181,42908306.83380111
2,6, 1, 6, 0,15, 0.00,60.00,Friday
7,18.416666666666669
2176,7713886.2036296329
2177,63369680.23417844
2178,5181556.546221699
2179,43958197.21387753
2180,4535658.933200815
2181,41640399.11502198
2,6, 1, 6, 0,16, 0.00,60.00,Friday
7,17.416666666666669
2176,7872337.646840212
2177,49984917.001217078
2178,5851911.120907756
2179,36937392.91018574
2180,4530107.176025165
2181,32396336.986527128
2,6, 1, 6, 0,17, 0.00,60.00,Friday
7,15.833333333333334
2176,8365944.376353089
2177,28552153.50360529
2178,4903276.759582295
2179,18309454.48975156
2180,3847908.597322135
2181,16065531.472678852
2,6, 1, 6, 0,18, 0.00,60.00,Friday
7,11.5
2176,11984322.192531459
2177,0.0
2178,3831650.3294931326
2179,0.0
2180,3945798.823687948
2181,0.0
2,6, 1, 6, 0,19, 0.00,60.00,Friday
7,9.583333333333334
2176,3501949.92112354
2177,0.0
2178,6347403.822426703
2179,0.0
2180,7487276.773403361
2181,0.0
2,6, 1, 6, 0,20, 0.00,60.00,Friday
7,9.416666666666666
2176,4270065.782124561
2177,0.0
2178,7128826.097978375
2179,0.0
2180,9106980.222644857
2181,0.0
2,6, 1, 6, 0,21, 0.00,60.00,Friday
7,9.0
2176,6406615.527585372
2177,0.0
2178,8630861.513146537
2179,0.0
2180,11207079.917650614
2181,0.0
2,6, 1, 6, 0,22, 0.00,60.00,Friday
7,9.583333333333334
2176,5668595.135224882
2177,0.0
2178,6992641.609809517
2179,0.0
2180,9987084.776922726
2181,0.0
2,6, 1, 6, 0,23, 0.00,60.00,Friday
7,7.083333333333333
2176,0.0
2177,0.0
2178,0.0
2179,0.0
2180,0.0
2181,0.0
2,6, 1, 6, 0,24, 0.00,60.00,Friday
7,6.166666666666667
2176,0.0
2177,0.0
2178,0.0
2179,0.0
2180,0.0
2181,0.0
2,7, 1, 7, 0, 1, 0.00,60.00,Saturday
7,6.416666666666667
2176,0.0
2177,0.0
2178,0.0
2179,0.0
2180,0.0
2181,0.0
2,7, 1, 7, 0, 2, 0.00,60.00,Saturday
7,4.833333333333333
2176,0.0
2177,0.0
2178,0.0
2179,0.0
2180,0.0
2181,0.0
2,7, 1, 7, 0, 3, 0.00,60.00,Saturday
7,6.916666666666667
2176,0.0
2177,0.0
2178,0.0
2179,0.0
2180,0.0
2181,0.0
2,7, 1, 7, 0, 4, 0.00,60.00,Saturday
7,10.166666666666666
2176,0.0
2177,0.0
2178,0.0
2179,0.0
2180,0.0
2181,0.0
2,7, 1, 7, 0, 5, 0.00,60.00,Saturday
7,8.083333333333334
2176,0.0
2177,0.0
2178,0.0
2179,0.0
2180,0.0
2181,0.0
2,7, 1, 7, 0, 6, 0.00,60.00,Saturday
7,7.75
2176,0.0
2177,0.0
2178,0.0
2179,0.0
2180,0.0
2181,0.0
2,7, 1, 7, 0, 7, 0.00,60.00,Saturday
7,7.25
2176,14033267.532729697
2177,0.0
2178,15104148.732589
2179,0.0
2180,20152227.72235704
2181,0.0
2,7, 1, 7, 0, 8, 0.00,60.00,Saturday
7,7.75
2176,11356765.906682432
2177,0.0
2178,13830589.963157606
2179,0.0
2180,28879771.35007449
2181,0.0
2,7, 1, 7, 0, 9, 0.00,60.00,Saturday
7,12.5
2176,3079795.0827018467
2177,1109897.6471185529
2178,3167955.1653687695
2179,927881.0769735862
2180,7465926.510649873
2181,916209.3075547202
2,7, 1, 7, 0,10, 0.00,60.00,Saturday
7,16.75
2176,3253895.273335168
2177,21020085.63780324
2178,2654318.440480257
2179,17134705.776650493
2180,2772106.4049055085
2181,15605217.471071586
2,7, 1, 7, 0,11, 0.00,60.00,Saturday
7,19.166666666666669
2176,3291551.247818781
2177,40252536.7987688
2178,2809565.6646437656
2179,33937717.477241609
2180,2652223.4591644599
2181,32320836.46519096
2,7, 1, 7, 0,12, 0.00,60.00,Saturday
7,19.941666666666668
2176,3685381.6517705286
2177,51687037.357627067
2178,3287677.9038353196
2179,44239624.0085772
2180,2946384.026746437
2181,40996106.41436469
2,7, 1, 7, 0,13, 0.00,60.00,Saturday
7,19.375
2176,3284247.9896391176
2177,42352336.86402526
2178,2898428.2645377458
2179,36339902.08663154
2180,2887146.98518196
2181,36597864.591124478
2,7, 1, 7, 0,14, 0.00,60.00,Saturday
7,17.833333333333333
2176,2966168.495200126
2177,31466709.673243397
2178,2858570.463208124
2179,27936203.29841456
2180,2683981.9167615429
2181,27528720.6313356
2,7, 1, 7, 0,15, 0.00,60.00,Saturday
7,15.833333333333334
2176,2955100.1970282385
2177,16870837.149515097
2178,2732986.097478779
2179,15096146.08687397
2180,2757520.5822407046
2181,15487154.04501401
2,7, 1, 7, 0,16, 0.00,60.00,Saturday
7,14.416666666666666
2176,2955100.1970282325
2177,3995479.3706248665
2178,2891707.3754741188
2179,3800065.9532336506
2180,2640184.55196027
2181,3553175.106226695
2,7, 1, 7, 0,17, 0.00,60.00,Saturday
7,13.416666666666666
2176,2955100.1970282385
2177,0.0
2178,2507214.1368721539
2179,0.0
2180,2452394.602587499
2181,0.0
2,7, 1, 7, 0,18, 0.00,60.00,Saturday
7,12.416666666666666
2176,2955100.197028227
2177,0.0
2178,2435446.2229700658
2179,0.0
2180,2447643.0509012246
2181,0.0
2,7, 1, 7, 0,19, 0.00,60.00,Saturday
7,11.416666666666666
2176,0.0
2177,0.0
2178,0.0
2179,0.0
2180,0.0
2181,0.0
2,7, 1, 7, 0,20, 0.00,60.00,Saturday
7,10.416666666666666
2176,0.0
2177,0.0
2178,0.0
2179,0.0
2180,0.0
2181,0.0
2,7, 1, 7, 0,21, 0.00,60.00,Saturday
7,8.833333333333334
2176,0.0
2177,0.0
2178,0.0
2179,0.0
2180,0.0
2181,0.0
2,7, 1, 7, 0,22, 0.00,60.00,Saturday
7,8.0
2176,0.0
2177,0.0
2178,0.0
2179,0.0
2180,0.0
2181,0.0
2,7, 1, 7, 0,23, 0.00,60.00,Saturday
7,8.0
2176,0.0
2177,0.0
2178,0.0
2179,0.0
2180,0.0
2181,0.0
2,7, 1, 7, 0,24, 0.00,60.00,Saturday
7,6.833333333333333
2176,0.0
2177,0.0
2178,0.0
2179,0.0
2180,0.0
2181,0.0
2,8, 1, 8, 0, 1, 0.00,60.00,Sunday
7,6.0
2176,0.0
2177,0.0
2178,0.0
2179,0.0
2180,0.0
2181,0.0
2,8, 1, 8, 0, 2, 0.00,60.00,Sunday
7,6.583333333333333
2176,0.0
2177,0.0
2178,0.0
2179,0.0
2180,0.0
2181,0.0
2,8, 1, 8, 0, 3, 0.00,60.00,Sunday
7,5.833333333333333
2176,0.0
2177,0.0
2178,0.0
2179,0.0
2180,0.0
2181,0.0
2,8, 1, 8, 0, 4, 0.00,60.00,Sunday
7,4.416666666666667
2176,0.0
2177,0.0
2178,0.0
2179,0.0
2180,0.0
2181,0.0
2,8, 1, 8, 0, 5, 0.00,60.00,Sunday
7,3.4166666666666667
2176,0.0
2177,0.0
2178,0.0
2179,0.0
2180,0.0
2181,0.0
2,8, 1, 8, 0, 6, 0.00,60.00,Sunday
7,3.0
2176,0.0
2177,0.0
2178,0.0
2179,0.0
2180,0.0
2181,0.0
2,8, 1, 8, 0, 7, 0.00,60.00,Sunday
7,1.8333333333333333
2176,0.0
2177,0.0
2178,0.0
2179,0.0
2180,0.0
2181,0.0
2,8, 1, 8, 0, 8, 0.00,60.00,Sunday
7,3.9166666666666667
2176,0.0
2177,0.0
2178,0.0
2179,0.0
2180,0.0
2181,0.0
2,8, 1, 8, 0, 9, 0.00,60.00,Sunday
7,8.333333333333334
2176,0.0
2177,0.0
2178,0.0
2179,0.0
2180,0.0
2181,0.0
2,8, 1, 8, 0,10, 0.00,60.00,Sunday
7,11.75
2176,0.0
2177,0.0
2178,0.0
2179,0.0
2180,0.0
2181,0.0
2,8, 1, 8, 0,11, 0.00,60.00,Sunday
7,14.75
2176,0.0
2177,0.0
2178,0.0
2179,0.0
2180,0.0
2181,0.0
2,8, 1, 8, 0,12, 0.00,60.00,Sunday
7,16.583333333333333
2176,1231291.7487617636
2177,7241152.241301363
2178,1654110.7649307559
2179,10325206.645715531
2180,0.0
2181,0.0
2,8, 1, 8, 0,13, 0.00,60.00,Sunday
7,17.0
2176,1970066.7980188216
2177,14284262.978518527
2178,2061776.5509843839
2179,15871133.00397767
2180,832593.5509772451
2181,6768955.5991031159
2,8, 1, 8, 0,14, 0.00,60.00,Sunday
7,17.0
2176,2462583.497523528
2177,18626033.313851358
2178,1749495.8973415769
2179,13817954.356230053
2180,1653527.1370582218
2181,13624660.293742085
2,8, 1, 8, 0,15, 0.00,60.00,Sunday
7,16.416666666666669
2176,1313377.8653458816
2177,8148151.118980566
2178,2052130.476204228
2179,13518316.515766874
2180,0.0
2181,0.0
2,8, 1, 8, 0,16, 0.00,60.00,Sunday
7,14.833333333333334
2176,0.0
2177,0.0
2178,0.0
2179,0.0
2180,0.0
2181,0.0
2,8, 1, 8, 0,17, 0.00,60.00,Sunday
7,12.833333333333334
2176,0.0
2177,0.0
2178,0.0
2179,0.0
2180,0.0
2181,0.0
2,8, 1, 8, 0,18, 0.00,60.00,Sunday
7,11.416666666666666
2176,0.0
2177,0.0
2178,0.0
2179,0.0
2180,0.0
2181,0.0
2,8, 1, 8, 0,19, 0.00,60.00,Sunday
7,9.833333333333334
2176,0.0
2177,0.0
2178,0.0
2179,0.0
2180,0.0
2181,0.0
2,8, 1, 8, 0,20, 0.00,60.00,Sunday
7,9.0
2176,0.0
2177,0.0
2178,0.0
2179,0.0
2180,0.0
2181,0.0
2,8, 1, 8, 0,21, 0.00,60.00,Sunday
7,9.0
2176,0.0
2177,0.0
2178,0.0
2179,0.0
2180,0.0
2181,0.0
2,8, 1, 8, 0,22, 0.00,60.00,Sunday
7,8.825000000000001
2176,0.0
2177,0.0
2178,0.0
2179,0.0
2180,0.0
2181,0.0
2,8, 1, 8, 0,23, 0.00,60.00,Sunday
7,8.525
2176,0.0
2177,0.0
2178,0.0
2179,0.0
2180,0.0
2181,0.0
2,8, 1, 8, 0,24, 0.00,60.00,Sunday
7,8.166666666666666
2176,0.0
2177,0.0
2178,0.0
2179,0.0
2180,0.0
2181,0.0
2,9, 1, 9, 0, 1, 0.00,60.00,Monday
7,6.25
2176,0.0
2177,0.0
2178,0.0
2179,0.0
2180,0.0
2181,0.0
2,9, 1, 9, 0, 2, 0.00,60.00,Monday
7,5.583333333333333
2176,0.0
2177,0.0
2178,0.0
2179,0.0
2180,0.0
2181,0.0
2,9, 1, 9, 0, 3, 0.00,60.00,Monday
7,4.833333333333333
2176,0.0
2177,0.0
2178,0.0
2179,0.0
2180,0.0
2181,0.0
2,9, 1, 9, 0, 4, 0.00,60.00,Monday
7,4.583333333333333
2176,0.0
2177,0.0
2178,0.0
2179,0.0
2180,0.0
2181,0.0
2,9, 1, 9, 0, 5, 0.00,60.00,Monday
7,5.583333333333333
2176,0.0
2177,0.0
2178,0.0
2179,0.0
2180,0.0
2181,0.0
2,9, 1, 9, 0, 6, 0.00,60.00,Monday
7,3.6666666666666667
2176,0.0
2177,0.0
2178,0.0
2179,0.0
2180,0.0
2181,0.0
2,9, 1, 9, 0, 7, 0.00,60.00,Monday