Program Version,EnergyPlus, Version 9.0.1-bb7ca4f0da, YMD=2022.04.26 19:50
1,5,Environment Title[],Latitude[deg],Longitude[deg],Time Zone[],Elevation[m]
2,8,Day of Simulation[],Month[],Day of Month[],DST Indicator[1=yes 0=no],Hour[],StartMinute[],EndMinute[],DayType
3,5,Cumulative Day of Simulation[],Month[],Day of Month[],DST Indicator[1=yes 0=no],DayType  ! When Daily Report Variables Requested
4,2,Cumulative Days of Simulation[],Month[]  ! When Monthly Report Variables Requested
5,1,Cumulative Days of Simulation[] ! When Run Period Report Variables Requested
6,1,Calendar Year of Simulation[] ! When Annual Report Variables Requested
7,1,Environment,Site Outdoor Air Drybulb Temperature [C] !Hourly
2176,1,PACU_VAV_BOT,Air System Total Heating Energy [J] !Hourly
2177,1,PACU_VAV_BOT,Air System Total Cooling Energy [J] !Hourly
2178,1,PACU_VAV_MID,Air System Total Heating Energy [J] !Hourly
2179,1,PACU_VAV_MID,Air System Total Cooling Energy [J] !Hourly
2180,1,PACU_VAV_TOP,Air System Total Heating Energy [J] !Hourly
2181,1,PACU_VAV_TOP,Air System Total Cooling Energy [J] !Hourly
End of Data Dictionary
1,RUNPERIOD 1,  32.58,-116.98,  -8.00, 159.00
2,1, 1, 1, 0, 1, 0.00,60.00,Holiday
7,8.416666666666666
2176,0.0
2177,0.0
2178,0.0
2179,0.0
2180,0.0
2181,0.0
2,1, 1, 1, 0, 2, 0.00,60.00,Holiday
7,8.0
2176,0.0
2177,0.0
2178,0.0
2179,0.0
2180,0.0
2181,0.0
2,1, 1, 1, 0, 3, 0.00,60.00,Holiday
7,8.583333333333334
2176,0.0
2177,0.0
2178,0.0
2179,0.0
2180,0.0
2181,0.0
2,1, 1, 1, 0, 4, 0.00,60.00,Holiday
7,9.0
2176,0.0
2177,0.0
2178,0.0
2179,0.0
2180,0.0
2181,0.0
2,1, 1, 1, 0, 5, 0.00,60.00,Holiday
7,9.0
2176,0.0
2177,0.0
2178,0.0
2179,0.0
2180,0.0
2181,0.0
2,1, 1, 1, 0, 6, 0.00,60.00,Holiday
7,8.416666666666666
2176,0.0
2177,0.0
2178,0.0
2179,0.0
2180,0.0
2181,0.0
2,1, 1, 1, 0, 7, 0.00,60.00,Holiday
7,8.583333333333334
2176,0.0
2177,0.0
2178,0.0
2179,0.0
2180,0.0
2181,0.0
2,1, 1, 1, 0, 8, 0.00,60.00,Holiday
7,9.583333333333334
2176,0.0
2177,0.0
2178,0.0
2179,0.0
2180,0.0
2181,0.0
2,1, 1, 1, 0, 9, 0.00,60.00,Holiday
7,11.166666666666666
2176,0.0
2177,0.0
2178,0.0
2179,0.0
2180,0.0
2181,0.0
2,1, 1, 1, 0,10, 0.00,60.00,Holiday
7,12.583333333333334
2176,0.0
2177,0.0
2178,0.0
2179,0.0
2180,0.0
2181,0.0
2,1, 1, 1, 0,11, 0.00,60.00,Holiday
7,13.0
2176,0.0
2177,0.0
2178,0.0
2179,0.0
2180,0.0
2181,0.0
2,1, 1, 1, 0,12, 0.00,60.00,Holiday
7,13.0
2176,0.0
2177,0.0
2178,0.0
2179,0.0
2180,0.0
2181,0.0
2,1, 1, 1, 0,13, 0.00,60.00,Holiday
7,13.0
2176,0.0
2177,0.0
2178,0.0
2179,0.0
2180,0.0
2181,0.0
2,1, 1, 1, 0,14, 0.00,60.00,Holiday
7,13.0
2176,0.0
2177,0.0
2178,0.0
2179,0.0
2180,0.0
2181,0.0
2,1, 1, 1, 0,15, 0.00,60.00,Holiday
7,13.0
2176,0.0
2177,0.0
2178,0.0
2179,0.0
2180,0.0
2181,0.0
2,1, 1, 1, 0,16, 0.00,60.00,Holiday
7,13.0
2176,0.0
2177,0.0
2178,0.0
2179,0.0
2180,0.0
2181,0.0
2,1, 1, 1, 0,17, 0.00,60.00,Holiday
7,11.833333333333334
2176,0.0
2177,0.0
2178,0.0
2179,0.0
2180,0.0
2181,0.0
2,1, 1, 1, 0,18, 0.00,60.00,Holiday
7,11.0
2176,0.0
2177,0.0
2178,0.0
2179,0.0
2180,0.0
2181,0.0
2,1, 1, 1, 0,19, 0.00,60.00,Holiday
7,11.0
2176,0.0
2177,0.0
2178,0.0
2179,0.0
2180,0.0
2181,0.0
2,1, 1, 1, 0,20, 0.00,60.00,Holiday
7,11.0
2176,0.0
2177,0.0
2178,0.0
2179,0.0
2180,0.0
2181,0.0
2,1, 1, 1, 0,21, 0.00,60.00,Holiday
7,11.0
2176,0.0
2177,0.0
2178,0.0
2179,0.0
2180,0.0
2181,0.0
2,1, 1, 1, 0,22, 0.00,60.00,Holiday
7,11.0
2176,0.0
2177,0.0
2178,0.0
2179,0.0
2180,0.0
2181,0.0
2,1, 1, 1, 0,23, 0.00,60.00,Holiday
7,10.416666666666666
2176,0.0
2177,0.0
2178,0.0
2179,0.0
2180,0.0
2181,0.0
2,1, 1, 1, 0,24, 0.00,60.00,Holiday
7,9.416666666666666
2176,0.0
2177,0.0
2178,0.0
2179,0.0
2180,0.0
2181,0.0
2,2, 1, 2, 0, 1, 0.00,60.00,Monday
7,9.583333333333334
2176,0.0
2177,0.0
2178,0.0
2179,0.0
2180,0.0
2181,0.0
2,2, 1, 2, 0, 2, 0.00,60.00,Monday
7,9.416666666666666
2176,0.0
2177,0.0
2178,0.0
2179,0.0
2180,0.0
2181,0.0
2,2, 1, 2, 0, 3, 0.00,60.00,Monday
7,10.166666666666666
2176,0.0
2177,0.0
2178,0.0
2179,0.0
2180,0.0
2181,0.0
2,2, 1, 2, 0, 4, 0.00,60.00,Monday
7,10.416666666666666
2176,0.0
2177,0.0
2178,0.0
2179,0.0
2180,0.0
2181,0.0
2,2, 1, 2, 0, 5, 0.00,60.00,Monday
7,10.583333333333334
2176,0.0
2177,0.0
2178,0.0
2179,0.0
2180,0.0
2181,0.0
2,2, 1, 2, 0, 6, 0.00,60.00,Monday
7,11.0
2176,0.0
2177,0.0
2178,0.0
2179,0.0
2180,0.0
2181,0.0
2,2, 1, 2, 0, 7, 0.00,60.00,Monday
7,11.0
2176,2981403.9133656148
2177,0.0
2178,5076828.737030471
2179,0.0
2180,25044953.20552369
2181,0.0
2,2, 1, 2, 0, 8, 0.00,60.00,Monday
7,11.0
2176,21943119.337850088
2177,0.0
2178,16010998.249726713
2179,0.0
2180,50966440.169193688
2181,0.0
2,2, 1, 2, 0, 9, 0.00,60.00,Monday
7,12.166666666666666
2176,6484881.4223576229
2177,0.0
2178,2622995.1585285568
2179,0.0
2180,8649986.46894056
2181,0.0
2,2, 1, 2, 0,10, 0.00,60.00,Monday
7,13.0
2176,3929927.7726556269
2177,0.0
2178,2439151.6941559158
2179,0.0
2180,2793382.375056375
2181,0.0
2,2, 1, 2, 0,11, 0.00,60.00,Monday
7,14.166666666666666
2176,3728153.6115997235
2177,3310715.9658002324
2178,2615340.9320839948
2179,2419687.8127493166
2180,2583916.590060244
2181,2434904.161593982
2,2, 1, 2, 0,12, 0.00,60.00,Monday
7,14.416666666666666
2176,4295139.899422727
2177,4303610.456404383
2178,3253536.8020320886
2179,3228622.3225655138
2180,2944417.4830343716
2181,3043205.3713841855
2,2, 1, 2, 0,13, 0.00,60.00,Monday
7,14.0
2176,4482364.5092882099
2177,0.0
2178,3140107.7746789685
2179,0.0
2180,3109504.9456289398
2181,0.0
2,2, 1, 2, 0,14, 0.00,60.00,Monday
7,14.0
2176,4874707.045512361
2177,0.0
2178,3471069.9213227799
2179,0.0
2180,3214977.3365895908
2181,0.0
2,2, 1, 2, 0,15, 0.00,60.00,Monday
7,13.416666666666666
2176,4594896.208255062
2177,0.0
2178,3219976.6428376378
2179,0.0
2180,3183448.912147737
2181,0.0
2,2, 1, 2, 0,16, 0.00,60.00,Monday
7,13.0
2176,4659310.366189056
2177,0.0
2178,3282842.892561119
2179,0.0
2180,3019746.885381309
2181,0.0
2,2, 1, 2, 0,17, 0.00,60.00,Monday
7,11.833333333333334
2176,5292554.570836225
2177,0.0
2178,2707679.980212994
2179,0.0
2180,2588195.55861888
2181,0.0
2,2, 1, 2, 0,18, 0.00,60.00,Monday
7,9.833333333333334
2176,17563199.711491884
2177,0.0
2178,7322489.958096065
2179,0.0
2180,7097677.211598596
2181,0.0
2,2, 1, 2, 0,19, 0.00,60.00,Monday
7,9.0
2176,9142766.759158118
2177,657382.1485780487
2178,10466151.575445567
2179,0.0
2180,12087650.195571987
2181,0.0
2,2, 1, 2, 0,20, 0.00,60.00,Monday
7,7.833333333333333
2176,13022422.298706804
2177,0.0
2178,14383447.776106343
2179,0.0
2180,19676751.604473816
2181,0.0
2,2, 1, 2, 0,21, 0.00,60.00,Monday
7,6.416666666666667
2176,18372506.85824538
2177,0.0
2178,19657765.645617635
2179,0.0
2180,28476417.158389413
2181,0.0
2,2, 1, 2, 0,22, 0.00,60.00,Monday
7,6.583333333333333
2176,18489672.36281752
2177,0.0
2178,20145315.25455596
2179,0.0
2180,31089175.625661069
2181,0.0
2,2, 1, 2, 0,23, 0.00,60.00,Monday
7,6.416666666666667
2176,0.0
2177,0.0
2178,0.0
2179,0.0
2180,0.0
2181,0.0
2,2, 1, 2, 0,24, 0.00,60.00,Monday
7,6.583333333333333
2176,0.0
2177,0.0
2178,0.0
2179,0.0
2180,0.0
2181,0.0
2,3, 1, 3, 0, 1, 0.00,60.00,Tuesday
7,6.416666666666667
2176,0.0
2177,0.0
2178,0.0
2179,0.0
2180,0.0
2181,0.0
2,3, 1, 3, 0, 2, 0.00,60.00,Tuesday
7,4.25
2176,0.0
2177,0.0
2178,0.0
2179,0.0
2180,0.0
2181,0.0
2,3, 1, 3, 0, 3, 0.00,60.00,Tuesday
7,4.166666666666667
2176,0.0
2177,0.0
2178,0.0
2179,0.0
2180,0.0
2181,0.0
2,3, 1, 3, 0, 4, 0.00,60.00,Tuesday
7,4.416666666666667
2176,0.0
2177,0.0
2178,0.0
2179,0.0
2180,0.0
2181,0.0
2,3, 1, 3, 0, 5, 0.00,60.00,Tuesday
7,3.4166666666666667
2176,0.0
2177,0.0
2178,0.0
2179,0.0
2180,0.0
2181,0.0
2,3, 1, 3, 0, 6, 0.00,60.00,Tuesday
7,4.166666666666667
2176,0.0
2177,0.0
2178,0.0
2179,0.0
2180,0.0
2181,0.0
2,3, 1, 3, 0, 7, 0.00,60.00,Tuesday
7,3.8333333333333337
2176,18998075.46268201
2177,0.0
2178,28171687.081564987
2179,0.0
2180,52334311.70173838
2181,0.0
2,3, 1, 3, 0, 8, 0.00,60.00,Tuesday
7,5.333333333333333
2176,39618572.646053809
2177,0.0
2178,31913370.39282337
2179,0.0
2180,62159323.15481891
2181,0.0
2,3, 1, 3, 0, 9, 0.00,60.00,Tuesday
7,9.333333333333334
2176,7935915.082091101
2177,0.0
2178,10149831.192965184
2179,0.0
2180,17607705.24092972
2181,0.0
2,3, 1, 3, 0,10, 0.00,60.00,Tuesday
7,12.166666666666666
2176,4661543.255363114
2177,0.0
2178,2871771.1510538544
2179,0.0
2180,3285918.9590284496
2181,0.0
2,3, 1, 3, 0,11, 0.00,60.00,Tuesday
7,14.166666666666666
2176,4473080.064462973
2177,3417513.864730275
2178,3003709.954777883
2179,2365332.901854475
2180,2859530.92511914
2181,2345534.4335742217
2,3, 1, 3, 0,12, 0.00,60.00,Tuesday
7,16.75
2176,4981796.420872946
2177,30200553.895040174
2178,3568358.246084896
2179,21711900.047784456
2180,3188577.843777018
2181,20394895.625286368
2,3, 1, 3, 0,13, 0.00,60.00,Tuesday
7,18.583333333333333
2176,4576217.696530449
2177,47448175.3708857
2178,3342710.944277361
2179,34565436.131789948
2180,3323082.003751002
2181,34919163.3063532
2,3, 1, 3, 0,14, 0.00,60.00,Tuesday
7,17.833333333333333
2176,5790297.613514643
2177,46446030.21157909
2178,3782621.459484973
2179,31556779.53529433
2180,3496942.6051722976
2181,30479539.63830226
2,3, 1, 3, 0,15, 0.00,60.00,Tuesday
7,17.583333333333333
2176,5308469.638174654
2177,41199783.64922305
2178,3586209.2516151645
2179,28443103.718180468
2180,3540038.987369231
2181,28716942.45420004
2,3, 1, 3, 0,16, 0.00,60.00,Tuesday
7,17.416666666666669
2176,5384897.307159616
2177,39601508.88079651
2178,3685969.9603050278
2179,27696069.66561918
2180,3388498.17856838
2181,26545084.37762017
2,3, 1, 3, 0,17, 0.00,60.00,Tuesday
7,14.666666666666666
2176,5937992.632348018
2177,11093755.834167632
2178,3003825.2693327956
2179,6646385.202558353
2180,2816816.942800733
2181,6556707.809323766
2,3, 1, 3, 0,18, 0.00,60.00,Tuesday
7,13.0
2176,8187923.778593013
2177,0.0
2178,2430481.2814911485
2179,0.0
2180,2441675.2704405749
2181,0.0
2,3, 1, 3, 0,19, 0.00,60.00,Tuesday
7,11.833333333333334
2176,2954901.683968652
2177,0.0
2178,2430481.2814911559
2179,0.0
2180,2626184.8534081114
2181,0.0
2,3, 1, 3, 0,20, 0.00,60.00,Tuesday
7,11.583333333333334
2176,2954901.683968658
2177,0.0
2178,2430481.2814911555
2179,0.0
2180,2539097.3725634666
2181,0.0
2,3, 1, 3, 0,21, 0.00,60.00,Tuesday
7,10.833333333333334
2176,3708283.0535127494
2177,0.0
2178,4046052.9391746029
2179,0.0
2180,6150597.5534344329
2181,0.0
2,3, 1, 3, 0,22, 0.00,60.00,Tuesday
7,8.833333333333334
2176,9678857.853466057
2177,0.0
2178,10877139.428874355
2179,0.0
2180,15455953.347840064
2181,0.0
2,3, 1, 3, 0,23, 0.00,60.00,Tuesday
7,9.75
2176,0.0
2177,0.0
2178,0.0
2179,0.0
2180,0.0
2181,0.0
2,3, 1, 3, 0,24, 0.00,60.00,Tuesday
7,9.25
2176,0.0
2177,0.0
2178,0.0
2179,0.0
2180,0.0
2181,0.0
2,4, 1, 4, 0, 1, 0.00,60.00,Wednesday
7,8.0
2176,0.0
2177,0.0
2178,0.0
2179,0.0
2180,0.0
2181,0.0
2,4, 1, 4, 0, 2, 0.00,60.00,Wednesday
7,8.583333333333334
2176,0.0
2177,0.0
2178,0.0
2179,0.0
2180,0.0
2181,0.0
2,4, 1, 4, 0, 3, 0.00,60.00,Wednesday
7,10.166666666666666
2176,0.0
2177,0.0
2178,0.0
2179,0.0
2180,0.0
2181,0.0
2,4, 1, 4, 0, 4, 0.00,60.00,Wednesday
7,9.25
2176,0.0
2177,0.0
2178,0.0
2179,0.0
2180,0.0
2181,0.0
2,4, 1, 4, 0, 5, 0.00,60.00,Wednesday
7,6.25
2176,0.0
2177,0.0
2178,0.0
2179,0.0
2180,0.0
2181,0.0
2,4, 1, 4, 0, 6, 0.00,60.00,Wednesday
7,6.166666666666667
2176,0.0
2177,0.0
2178,0.0
2179,0.0
2180,0.0
2181,0.0
2,4, 1, 4, 0, 7, 0.00,60.00,Wednesday
7,7.583333333333333
2176,14002570.819279332
2177,0.0
2178,15405960.821501414
2179,0.0
2180,24561402.268776318
2181,0.0
2,4, 1, 4, 0, 8, 0.00,60.00,Wednesday
7,10.333333333333334
2176,18766634.213354589
2177,390635.298860253
2178,6907589.738216937
2179,0.0
2180,21997815.17809924
2181,0.0
2,4, 1, 4, 0, 9, 0.00,60.00,Wednesday
7,13.166666666666666
2176,7021768.326139381
2177,0.0
2178,2689479.0848926038
2179,0.0
2180,2520939.2116394
2181,0.0
2,4, 1, 4, 0,10, 0.00,60.00,Wednesday
7,15.75
2176,5280215.703280104
2177,20113531.3764366
2178,3289196.6311906136
2179,13022598.18761064
2180,2721966.562620501
2181,11230938.835231942
2,4, 1, 4, 0,11, 0.00,60.00,Wednesday
7,17.583333333333333
2176,5226302.37551516
2177,40615210.44419099
2178,3388095.35433715
2179,27214164.162512699
2180,3105176.5506089406
2181,25767481.507847214
2,4, 1, 4, 0,12, 0.00,60.00,Wednesday
7,18.583333333333333
2176,5905414.084906903
2177,56241172.18845238
2178,3802822.873984745
2179,37771373.29050393
2180,3475600.1291848376
2181,36096700.82737457
2,4, 1, 4, 0,13, 0.00,60.00,Wednesday
7,19.0
2176,5284219.737341389
2177,57172224.94040057
2178,3540756.8564943915
2179,39302042.125741649
2180,3579417.369433037
2181,40285749.008062858
2,4, 1, 4, 0,14, 0.00,60.00,Wednesday
7,19.583333333333333
2176,6737419.263517591
2177,74171852.73447004
2178,3882453.8076489067
2179,46747609.46982284
2180,3728646.431561344
2181,46368452.540132049
2,4, 1, 4, 0,15, 0.00,60.00,Wednesday
7,19.416666666666669
2176,6268167.221773659
2177,68970166.44994283
2178,4059417.0381111397
2179,46597879.07747366
2180,3888102.8338131399
2181,46311431.70766261
2,4, 1, 4, 0,16, 0.00,60.00,Wednesday
7,18.416666666666669
2176,6427959.725883335
2177,57217144.68329048
2178,4368407.333836029
2179,40001302.07032702
2180,3713263.774467609
2181,36630130.91198718
2,4, 1, 4, 0,17, 0.00,60.00,Wednesday
7,16.833333333333333
2176,6835467.504024252
2177,38366504.738707337
2178,3713896.235038073
2179,23387796.47937724
2180,3098826.2033082896
2181,21239743.5492721
2,4, 1, 4, 0,18, 0.00,60.00,Wednesday
7,15.416666666666666
2176,5648816.818951323
2177,17192744.255354309
2178,2468701.744735149
2179,9240848.830961582
2180,2449101.1887802018
2181,9307341.378606428
2,4, 1, 4, 0,19, 0.00,60.00,Wednesday
7,14.416666666666666
2176,2976177.7422989837
2177,3171486.5448278037
2178,2430481.2814911517
2179,2507583.244967486
2180,2441675.270440572
2181,2556851.669535713
2,4, 1, 4, 0,20, 0.00,60.00,Wednesday
7,11.666666666666666
2176,3163627.7468761077
2177,0.0
2178,3160953.3733435778
2179,0.0
2180,3692446.8788149685
2181,0.0
2,4, 1, 4, 0,21, 0.00,60.00,Wednesday
7,10.583333333333334
2176,3084083.9035567746
2177,0.0
2178,3695500.3273119765
2179,0.0
2180,5612878.103838481
2181,0.0
2,4, 1, 4, 0,22, 0.00,60.00,Wednesday
7,10.416666666666666
2176,3754519.359369848
2177,0.0
2178,4437223.027447863
2179,0.0
2180,6940242.891707336
2181,0.0
2,4, 1, 4, 0,23, 0.00,60.00,Wednesday
7,11.166666666666666
2176,0.0
2177,0.0
2178,0.0
2179,0.0
2180,0.0
2181,0.0
2,4, 1, 4, 0,24, 0.00,60.00,Wednesday
7,9.666666666666666
2176,0.0
2177,0.0
2178,0.0
2179,0.0
2180,0.0
2181,0.0
2,5, 1, 5, 0, 1, 0.00,60.00,Thursday
7,8.583333333333334
2176,0.0
2177,0.0
2178,0.0
2179,0.0
2180,0.0
2181,0.0
2,5, 1, 5, 0, 2, 0.00,60.00,Thursday
7,7.833333333333333
2176,0.0
2177,0.0
2178,0.0
2179,0.0
2180,0.0
2181,0.0
2,5, 1, 5, 0, 3, 0.00,60.00,Thursday
7,6.416666666666667
2176,0.0
2177,0.0
2178,0.0
2179,0.0
2180,0.0
2181,0.0
2,5, 1, 5, 0, 4, 0.00,60.00,Thursday
7,6.583333333333333
2176,0.0
2177,0.0
2178,0.0
2179,0.0
2180,0.0
2181,0.0
2,5, 1, 5, 0, 5, 0.00,60.00,Thursday
7,7.0
2176,0.0
2177,0.0
2178,0.0
2179,0.0
2180,0.0
2181,0.0
2,5, 1, 5, 0, 6, 0.00,60.00,Thursday
7,7.583333333333333
2176,0.0
2177,0.0
2178,0.0
2179,0.0
2180,0.0
2181,0.0
2,5, 1, 5, 0, 7, 0.00,60.00,Thursday
7,6.25
2176,16730675.873436796
2177,0.0
2178,18599037.085877308
2179,0.0
2180,23898222.06811916
2181,0.0
2,5, 1, 5, 0, 8, 0.00,60.00,Thursday
7,7.333333333333333
2176,23953562.96710732
2177,0.0
2178,15451266.998920944
2179,0.0
2180,30107941.40818308
2181,0.0
2,5, 1, 5, 0, 9, 0.00,60.00,Thursday
7,11.333333333333334
2176,8932461.990543077
2177,0.0
2178,4075159.822376058
2179,0.0
2180,5909279.017441886
2181,0.0
2,5, 1, 5, 0,10, 0.00,60.00,Thursday
7,14.75
2176,6138650.619647601
2177,10677668.385853041
2178,3462968.3862510567
2179,6540679.328114151
2180,2791134.786018656
2181,5509649.299293317
2,5, 1, 5, 0,11, 0.00,60.00,Thursday
7,16.583333333333333
2176,6038613.120062997
2177,32289204.92263953
2178,3649501.5175384159
2179,20704985.667255694
2180,3180878.4286636097
2181,18928266.447709644
2,5, 1, 5, 0,12, 0.00,60.00,Thursday
7,17.525000000000003
2176,6777197.304795167
2177,47285263.24329677
2178,4074332.383839438
2179,30509728.135758617
2180,3589372.834441661
2181,28481505.182079577
2,5, 1, 5, 0,13, 0.00,60.00,Thursday
7,17.958333333333333
2176,5780182.446715905
2177,48154754.847407039
2178,3567018.595763743
2179,31930466.592725398
2180,3705019.468256376
2181,33622682.06226927
2,5, 1, 5, 0,14, 0.00,60.00,Thursday
7,17.416666666666669
2176,7910564.094780061
2177,50677730.422408077
2178,4478485.1486308709
2179,32365637.49560661
2180,3837209.861834567
2181,31399957.892593806
2,5, 1, 5, 0,15, 0.00,60.00,Thursday
7,16.591666666666666
2176,7424740.162695959
2177,40799304.56102177
2178,4906632.126087981
2179,27982776.568660056
2180,4159807.984416562
2181,26876652.998224308
2,5, 1, 5, 0,16, 0.00,60.00,Thursday
7,15.483333333333335
2176,7666030.228606084
2177,27475772.116781977
2178,5480823.769608453
2179,19658409.58766156
2180,4245969.150264196
2181,17575978.88566561
2,5, 1, 5, 0,17, 0.00,60.00,Thursday
7,13.791666666666666
2176,8312773.244432371
2177,3555375.6166518789
2178,4650195.212656414
2179,2164256.6951777494
2180,3668754.0823461289
2181,1748300.7032794078
2,5, 1, 5, 0,18, 0.00,60.00,Thursday
7,12.416666666666666
2176,8175182.960196241
2177,0.0
2178,2499846.370324126
2179,0.0
2180,2456085.239524036
2181,0.0
2,5, 1, 5, 0,19, 0.00,60.00,Thursday
7,11.416666666666666
2176,3268150.7839257495
2177,0.0
2178,2430481.2814911378
2179,0.0
2180,2441675.270440557
2181,0.0
2,5, 1, 5, 0,20, 0.00,60.00,Thursday
7,10.416666666666666
2176,2954901.6839686597
2177,0.0
2178,3722094.9921706805
2179,0.0
2180,5386805.859071599
2181,0.0
2,5, 1, 5, 0,21, 0.00,60.00,Thursday
7,9.416666666666666
2176,5308560.456753415
2177,0.0
2178,7461811.68139403
2179,0.0
2180,9767256.399060946
2181,0.0
2,5, 1, 5, 0,22, 0.00,60.00,Thursday
7,10.166666666666666
2176,4278754.108940108
2177,0.0
2178,5050839.988788076
2179,0.0
2180,7622063.49986213
2181,0.0
2,5, 1, 5, 0,23, 0.00,60.00,Thursday
7,9.833333333333334
2176,0.0
2177,0.0
2178,0.0
2179,0.0
2180,0.0
2181,0.0
2,5, 1, 5, 0,24, 0.00,60.00,Thursday
7,7.25
2176,0.0
2177,0.0
2178,0.0
2179,0.0
2180,0.0
2181,0.0
2,6, 1, 6, 0, 1, 0.00,60.00,Friday
7,6.583333333333333
2176,0.0
2177,0.0
2178,0.0
2179,0.0
2180,0.0
2181,0.0
2,6, 1, 6, 0, 2, 0.00,60.00,Friday
7,7.583333333333333
2176,0.0
2177,0.0
2178,0.0
2179,0.0
2180,0.0
2181,0.0
2,6, 1, 6, 0, 3, 0.00,60.00,Friday
7,8.0
2176,0.0
2177,0.0
2178,0.0
2179,0.0
2180,0.0
2181,0.0
2,6, 1, 6, 0, 4, 0.00,60.00,Friday
7,10.333333333333334
2176,0.0
2177,0.0
2178,0.0
2179,0.0
2180,0.0
2181,0.0
2,6, 1, 6, 0, 5, 0.00,60.00,Friday
7,9.666666666666666
2176,0.0
2177,0.0
2178,0.0
2179,0.0
2180,0.0
2181,0.0
2,6, 1, 6, 0, 6, 0.00,60.00,Friday
7,8.583333333333334
2176,0.0
2177,0.0
2178,0.0
2179,0.0
2180,0.0
2181,0.0
2,6, 1, 6, 0, 7, 0.00,60.00,Friday
7,9.0
2176,8354799.518737638
2177,0.0
2178,9597068.386557512
2179,0.0
2180,14154853.33782895
2181,0.0
2,6, 1, 6, 0, 8, 0.00,60.00,Friday
7,9.0
2176,17595202.69419109
2177,0.0
2178,9951248.628088087
2179,0.0
2180,20543790.446941254
2181,0.0
2,6, 1, 6, 0, 9, 0.00,60.00,Friday
7,11.333333333333334
2176,9644299.902932952
2177,0.0
2178,4092060.5105723247
2179,0.0
2180,5675379.217429618
2181,0.0
2,6, 1, 6, 0,10, 0.00,60.00,Friday
7,15.333333333333334
2176,6494951.097065892
2177,18293480.853299254
2178,3728927.491003446
2179,11421265.554593429
2180,2806334.8759204556
2181,9233289.837072829
2,6, 1, 6, 0,11, 0.00,60.00,Friday
7,17.583333333333333
2176,6359257.125660822
2177,46009348.27264417
2178,3931380.5001441317
2179,30155819.251590969
2180,3239287.0489512246
2181,26632080.373618109
2,6, 1, 6, 0,12, 0.00,60.00,Friday
7,18.583333333333333
2176,7096937.930691969
2177,62671012.28041033
2178,4338323.646606814
2179,41075435.29818617
2180,3617809.7977412336
2181,37115322.7367006
2,6, 1, 6, 0,13, 0.00,60.00,Friday
7,19.0
2176,6242271.060677598
2177,63343830.69897813
2178,3603961.3408837236
2179,39691340.38066042
2180,3690732.3429468169
2181,41088465.023762937
2,6, 1, 6, 0,14, 0.00,60.00,Friday
7,19.0
2176,8196900.05412237
2177,74051659.78475206
2178,4788322.240273885
2179,47542817.51211456
2180,3942537.743293726
2181,42998939.8482136
2,6, 1, 6, 0,15, 0.00,60.00,Friday
7,18.416666666666669
2176,7757947.353979482
2177,63572238.285575199
2178,5233194.7274613319
2179,44212148.71726631
2180,4598951.117602832
2181,41958497.18843594
2,6, 1, 6, 0,16, 0.00,60.00,Friday
7,17.416666666666669
2176,7912256.791853676
2177,50130850.77061315
2178,5907891.437246119
2179,37137840.29021887
2180,4582414.284467966
2181,32602692.211464138
2,6, 1, 6, 0,17, 0.00,60.00,Friday
7,15.833333333333334
2176,8400717.776862184
2177,28626586.942243864
2178,4949638.328419529
2179,18421025.105919795
2180,3880486.2071786245
2181,16122425.96929281
2,6, 1, 6, 0,18, 0.00,60.00,Friday
7,11.5
2176,12012639.58939378
2177,0.0
2178,3917141.028880559
2179,0.0
2180,3988145.4956287236
2181,0.0
2,6, 1, 6, 0,19, 0.00,60.00,Friday
7,9.583333333333334
2176,3515696.809319769
2177,0.0
2178,6606545.4607693799
2179,0.0
2180,7606430.745160701
2181,0.0
2,6, 1, 6, 0,20, 0.00,60.00,Friday
7,9.416666666666666
2176,4280005.551167669
2177,0.0
2178,7380203.471822614
2179,0.0
2180,9201641.499825322
2181,0.0
2,6, 1, 6, 0,21, 0.00,60.00,Friday
7,9.0
2176,6416156.318618294
2177,0.0
2178,8880920.268880925
2179,0.0
2180,11283918.904858126
2181,0.0
2,6, 1, 6, 0,22, 0.00,60.00,Friday
7,9.583333333333334
2176,5669743.683440409
2177,0.0
2178,7227965.620550129
2179,0.0
2180,10046918.777415613
2181,0.0
2,6, 1, 6, 0,23, 0.00,60.00,Friday
7,7.083333333333333
2176,0.0
2177,0.0
2178,0.0
2179,0.0
2180,0.0
2181,0.0
2,6, 1, 6, 0,24, 0.00,60.00,Friday
7,6.166666666666667
2176,0.0
2177,0.0
2178,0.0
2179,0.0
2180,0.0
2181,0.0
2,7, 1, 7, 0, 1, 0.00,60.00,Saturday
7,6.416666666666667
2176,0.0
2177,0.0
2178,0.0
2179,0.0
2180,0.0
2181,0.0
2,7, 1, 7, 0, 2, 0.00,60.00,Saturday
7,4.833333333333333
2176,0.0
2177,0.0
2178,0.0
2179,0.0
2180,0.0
2181,0.0
2,7, 1, 7, 0, 3, 0.00,60.00,Saturday
7,6.916666666666667
2176,0.0
2177,0.0
2178,0.0
2179,0.0
2180,0.0
2181,0.0
2,7, 1, 7, 0, 4, 0.00,60.00,Saturday
7,10.166666666666666
2176,0.0
2177,0.0
2178,0.0
2179,0.0
2180,0.0
2181,0.0
2,7, 1, 7, 0, 5, 0.00,60.00,Saturday
7,8.083333333333334
2176,0.0
2177,0.0
2178,0.0
2179,0.0
2180,0.0
2181,0.0
2,7, 1, 7, 0, 6, 0.00,60.00,Saturday
7,7.75
2176,0.0
2177,0.0
2178,0.0
2179,0.0
2180,0.0
2181,0.0
2,7, 1, 7, 0, 7, 0.00,60.00,Saturday
7,7.25
2176,14071317.578265224
2177,0.0
2178,15336718.79646761
2179,0.0
2180,20087235.691622866
2181,0.0
2,7, 1, 7, 0, 8, 0.00,60.00,Saturday
7,7.75
2176,11329843.389617784
2177,0.0
2178,14051724.002153274
2179,0.0
2180,28119942.493400996
2181,0.0
2,7, 1, 7, 0, 9, 0.00,60.00,Saturday
7,12.5
2176,3095651.291968308
2177,1115640.0306380226
2178,3198949.2934586994
2179,926637.2822226628
2180,7082130.071651275
2181,914024.3110703445
2,7, 1, 7, 0,10, 0.00,60.00,Saturday
7,16.75
2176,3277553.638648143
2177,21174839.080733818
2178,2672290.3078360606
2179,17233720.564795965
2180,2618342.437293861
2181,15595949.765118344
2,7, 1, 7, 0,11, 0.00,60.00,Saturday
7,19.166666666666669
2176,3310232.306310052
2177,40488307.48036815
2178,2818673.606829496
2179,34030621.330006558
2180,2655579.137602594
2181,32362008.87669625
2,7, 1, 7, 0,12, 0.00,60.00,Saturday
7,19.941666666666668
2176,3702803.39230086
2177,51905492.80359481
2178,3287685.858383201
2179,44238884.648708548
2180,2947770.962036996
2181,40998170.480767879
2,7, 1, 7, 0,13, 0.00,60.00,Saturday
7,19.375
2176,3295666.0906007208
2177,42480736.157702337
2178,2896446.5360857585
2179,36318717.164769839
2180,2884530.8798560665
2181,36549895.80707979
2,7, 1, 7, 0,14, 0.00,60.00,Saturday
7,17.833333333333333
2176,2971719.4527422038
2177,31529893.52568879
2178,2854362.2460605327
2179,27917571.547318516
2180,2679105.107151153
2181,27451366.153235768
2,7, 1, 7, 0,15, 0.00,60.00,Saturday
7,15.833333333333334
2176,2954901.6839686597
2177,16886270.71823655
2178,2732691.884578006
2179,15093396.618494174
2180,2753033.2716291097
2181,15448424.039871427
2,7, 1, 7, 0,16, 0.00,60.00,Saturday
7,14.416666666666666
2176,2954901.6839686499
2177,3995071.5140496289
2178,2893235.3381691586
2179,3802520.0281368095
2180,2638371.525269703
2181,3548245.257745561
2,7, 1, 7, 0,17, 0.00,60.00,Saturday
7,13.416666666666666
2176,2954901.6839686466
2177,0.0
2178,2504669.3246884166
2179,0.0
2180,2446621.626793623
2181,0.0
2,7, 1, 7, 0,18, 0.00,60.00,Saturday
7,12.416666666666666
2176,2954901.6839686527
2177,0.0
2178,2430481.281491154
2179,0.0
2180,2441675.270440573
2181,0.0
2,7, 1, 7, 0,19, 0.00,60.00,Saturday
7,11.416666666666666
2176,0.0
2177,0.0
2178,0.0
2179,0.0
2180,0.0
2181,0.0
2,7, 1, 7, 0,20, 0.00,60.00,Saturday
7,10.416666666666666
2176,0.0
2177,0.0
2178,0.0
2179,0.0
2180,0.0
2181,0.0
2,7, 1, 7, 0,21, 0.00,60.00,Saturday
7,8.833333333333334
2176,0.0
2177,0.0
2178,0.0
2179,0.0
2180,0.0
2181,0.0
2,7, 1, 7, 0,22, 0.00,60.00,Saturday
7,8.0
2176,0.0
2177,0.0
2178,0.0
2179,0.0
2180,0.0
2181,0.0
2,7, 1, 7, 0,23, 0.00,60.00,Saturday
7,8.0
2176,0.0
2177,0.0
2178,0.0
2179,0.0
2180,0.0
2181,0.0
2,7, 1, 7, 0,24, 0.00,60.00,Saturday
7,6.833333333333333
2176,0.0
2177,0.0
2178,0.0
2179,0.0
2180,0.0
2181,0.0
2,8, 1, 8, 0, 1, 0.00,60.00,Sunday
7,6.0
2176,0.0
2177,0.0
2178,0.0
2179,0.0
2180,0.0
2181,0.0
2,8, 1, 8, 0, 2, 0.00,60.00,Sunday
7,6.583333333333333
2176,0.0
2177,0.0
2178,0.0
2179,0.0
2180,0.0
2181,0.0
2,8, 1, 8, 0, 3, 0.00,60.00,Sunday
7,5.833333333333333
2176,0.0
2177,0.0
2178,0.0
2179,0.0
2180,0.0
2181,0.0
2,8, 1, 8, 0, 4, 0.00,60.00,Sunday
7,4.416666666666667
2176,0.0
2177,0.0
2178,0.0
2179,0.0
2180,0.0
2181,0.0
2,8, 1, 8, 0, 5, 0.00,60.00,Sunday
7,3.4166666666666667
2176,0.0
2177,0.0
2178,0.0
2179,0.0
2180,0.0
2181,0.0
2,8, 1, 8, 0, 6, 0.00,60.00,Sunday
7,3.0
2176,0.0
2177,0.0
2178,0.0
2179,0.0
2180,0.0
2181,0.0
2,8, 1, 8, 0, 7, 0.00,60.00,Sunday
7,1.8333333333333333
2176,0.0
2177,0.0
2178,0.0
2179,0.0
2180,0.0
2181,0.0
2,8, 1, 8, 0, 8, 0.00,60.00,Sunday
7,3.9166666666666667
2176,0.0
2177,0.0
2178,0.0
2179,0.0
2180,0.0
2181,0.0
2,8, 1, 8, 0, 9, 0.00,60.00,Sunday
7,8.333333333333334
2176,0.0
2177,0.0
2178,0.0
2179,0.0
2180,0.0
2181,0.0
2,8, 1, 8, 0,10, 0.00,60.00,Sunday
7,11.75
2176,0.0
2177,0.0
2178,0.0
2179,0.0
2180,0.0
2181,0.0
2,8, 1, 8, 0,11, 0.00,60.00,Sunday
7,14.75
2176,0.0
2177,0.0
2178,0.0
2179,0.0
2180,0.0
2181,0.0
2,8, 1, 8, 0,12, 0.00,60.00,Sunday
7,16.583333333333333
2176,1477450.8419843284
2177,8808408.682110664
2178,1661134.6129814753
2179,10375454.363525827
2180,0.0
2181,0.0
2,8, 1, 8, 0,13, 0.00,60.00,Sunday
7,17.0
2176,1969934.4559791045
2177,14265647.429325331
2178,2060182.847211896
2179,15863655.542237653
2180,831458.0924990454
2181,6753443.747697447
2,8, 1, 8, 0,14, 0.00,60.00,Sunday
7,17.0
2176,2462418.0699738815
2177,18604792.88552014
2178,1747674.9221416927
2179,13807163.312371472
2180,1650006.4936546882
2181,13587106.197403757
2,8, 1, 8, 0,15, 0.00,60.00,Sunday
7,16.416666666666669
2176,1313289.6373194028
2177,8138504.073539166
2178,2048403.4820714016
2179,13501118.639570589
2180,0.0
2181,0.0
2,8, 1, 8, 0,16, 0.00,60.00,Sunday
7,14.833333333333334
2176,0.0
2177,0.0
2178,0.0
2179,0.0
2180,0.0
2181,0.0
2,8, 1, 8, 0,17, 0.00,60.00,Sunday
7,12.833333333333334
2176,0.0
2177,0.0
2178,0.0
2179,0.0
2180,0.0
2181,0.0
2,8, 1, 8, 0,18, 0.00,60.00,Sunday
7,11.416666666666666
2176,0.0
2177,0.0
2178,0.0
2179,0.0
2180,0.0
2181,0.0
2,8, 1, 8, 0,19, 0.00,60.00,Sunday
7,9.833333333333334
2176,0.0
2177,0.0
2178,0.0
2179,0.0
2180,0.0
2181,0.0
2,8, 1, 8, 0,20, 0.00,60.00,Sunday
7,9.0
2176,0.0
2177,0.0
2178,0.0
2179,0.0
2180,0.0
2181,0.0
2,8, 1, 8, 0,21, 0.00,60.00,Sunday
7,9.0
2176,0.0
2177,0.0
2178,0.0
2179,0.0
2180,0.0
2181,0.0
2,8, 1, 8, 0,22, 0.00,60.00,Sunday
7,8.825000000000001
2176,0.0
2177,0.0
2178,0.0
2179,0.0
2180,0.0
2181,0.0
2,8, 1, 8, 0,23, 0.00,60.00,Sunday
7,8.525
2176,0.0
2177,0.0
2178,0.0
2179,0.0
2180,0.0
2181,0.0
2,8, 1, 8, 0,24, 0.00,60.00,Sunday
7,8.166666666666666
2176,0.0
2177,0.0
2178,0.0
2179,0.0
2180,0.0
2181,0.0
2,9, 1, 9, 0, 1, 0.00,60.00,Monday
7,6.25
2176,0.0
2177,0.0
2178,0.0
2179,0.0
2180,0.0
2181,0.0
2,9, 1, 9, 0, 2, 0.00,60.00,Monday
7,5.583333333333333
2176,0.0
2177,0.0
2178,0.0
2179,0.0
2180,0.0
2181,0.0
2,9, 1, 9, 0, 3, 0.00,60.00,Monday
7,4.833333333333333
2176,0.0
2177,0.0
2178,0.0
2179,0.0
2180,0.0
2181,0.0
2,9, 1, 9, 0, 4, 0.00,60.00,Monday
7,4.583333333333333
2176,0.0
2177,0.0
2178,0.0
2179,0.0
2180,0.0
2181,0.0
2,9, 1, 9, 0, 5, 0.00,60.00,Monday
7,5.583333333333333
2176,0.0
2177,0.0
2178,0.0
2179,0.0
2180,0.0
2181,0.0
2,9, 1, 9, 0, 6, 0.00,60.00,Monday
7,3.6666666666666667
2176,0.0
2177,0.0
2178,0.0
2179,0.0
2180,0.0
2181,0.0