Program Version,EnergyPlus, Version 9.0.1-bb7ca4f0da, YMD=2022.04.26 19:50
1,5,Environment Title[],Latitude[deg],Longitude[deg],Time Zone[],Elevation[m]
2,8,Day of Simulation[],Month[],Day of Month[],DST Indicator[1=yes 0=no],Hour[],StartMinute[],EndMinute[],DayType
3,5,Cumulative Day of Simulation[],Month[],Day of Month[],DST Indicator[1=yes 0=no],DayType  ! When Daily Meters Requested
4,2,Cumulative Days of Simulation[],Month[]  ! When Monthly Meters Requested
5,1,Cumulative Days of Simulation[] ! When Run Period Meters Requested
6,1,Calendar Year of Simulation[] ! When Annual Meters Requested
25,1,Electricity:Facility [J] !Hourly
1870,1,ElectricityNet:Facility [J] !Hourly
757,1,Gas:Facility [J] !Hourly
End of Data Dictionary
1,RUNPERIOD 1,  32.58,-116.98,  -8.00, 159.00
2,1, 1, 1, 0, 1, 0.00,60.00,Holiday
25,46359074.93593144
757,6791184.0
1870,46359074.93593143
2,1, 1, 1, 0, 2, 0.00,60.00,Holiday
25,46359235.70955593
757,6791184.0
1870,46359235.709555927
2,1, 1, 1, 0, 3, 0.00,60.00,Holiday
25,46359235.70955593
757,6791184.0
1870,46359235.709555927
2,1, 1, 1, 0, 4, 0.00,60.00,Holiday
25,46359235.70955593
757,6791184.0
1870,46359235.709555927
2,1, 1, 1, 0, 5, 0.00,60.00,Holiday
25,46359235.70955593
757,6791184.0
1870,46359235.709555927
2,1, 1, 1, 0, 6, 0.00,60.00,Holiday
25,46359235.70955593
757,6791184.0
1870,46359235.709555927
2,1, 1, 1, 0, 7, 0.00,60.00,Holiday
25,62835664.11785701
757,6791184.0
1870,62835664.11785701
2,1, 1, 1, 0, 8, 0.00,60.00,Holiday
25,46641429.03377286
757,6791184.0
1870,46641429.03377286
2,1, 1, 1, 0, 9, 0.00,60.00,Holiday
25,46320927.947663698
757,6791184.0
1870,46320927.947663698
2,1, 1, 1, 0,10, 0.00,60.00,Holiday
25,46288812.51597283
757,6791184.0
1870,46288812.51597283
2,1, 1, 1, 0,11, 0.00,60.00,Holiday
25,46333177.971896018
757,6791184.0
1870,46333177.97189601
2,1, 1, 1, 0,12, 0.00,60.00,Holiday
25,46294868.38195652
757,6791184.0
1870,46294868.38195651
2,1, 1, 1, 0,13, 0.00,60.00,Holiday
25,46288812.51597283
757,6791184.0
1870,46288812.51597283
2,1, 1, 1, 0,14, 0.00,60.00,Holiday
25,46288812.51597283
757,6791184.0
1870,46288812.51597283
2,1, 1, 1, 0,15, 0.00,60.00,Holiday
25,46297049.95146436
757,6791184.0
1870,46297049.951464358
2,1, 1, 1, 0,16, 0.00,60.00,Holiday
25,46363740.30021446
757,6791184.0
1870,46363740.30021446
2,1, 1, 1, 0,17, 0.00,60.00,Holiday
25,53321942.22249201
757,6791184.0
1870,53321942.22249201
2,1, 1, 1, 0,18, 0.00,60.00,Holiday
25,66276703.53612528
757,6791184.0
1870,66276703.53612528
2,1, 1, 1, 0,19, 0.00,60.00,Holiday
25,57105773.81922845
757,6791184.0
1870,57105773.81922844
2,1, 1, 1, 0,20, 0.00,60.00,Holiday
25,48904615.70955593
757,6791184.0
1870,48904615.70955593
2,1, 1, 1, 0,21, 0.00,60.00,Holiday
25,48904615.70955593
757,6791184.0
1870,48904615.70955593
2,1, 1, 1, 0,22, 0.00,60.00,Holiday
25,48904615.70955593
757,6791184.0
1870,48904615.70955593
2,1, 1, 1, 0,23, 0.00,60.00,Holiday
25,48904615.70955593
757,6791184.0
1870,48904615.70955593
2,1, 1, 1, 0,24, 0.00,60.00,Holiday
25,48904615.70955593
757,6791184.0
1870,48904615.70955593
2,2, 1, 2, 0, 1, 0.00,60.00,Monday
25,57609860.1137362
757,6791184.0
1870,57609860.1137362
2,2, 1, 2, 0, 2, 0.00,60.00,Monday
25,57609860.1137362
757,6791184.0
1870,57609860.1137362
2,2, 1, 2, 0, 3, 0.00,60.00,Monday
25,57609860.1137362
757,6791184.0
1870,57609860.1137362
2,2, 1, 2, 0, 4, 0.00,60.00,Monday
25,57609860.1137362
757,6791184.0
1870,57609860.1137362
2,2, 1, 2, 0, 5, 0.00,60.00,Monday
25,57609860.1137362
757,6791184.0
1870,57609860.1137362
2,2, 1, 2, 0, 6, 0.00,60.00,Monday
25,57609860.1137362
757,6791184.0
1870,57609860.1137362
2,2, 1, 2, 0, 7, 0.00,60.00,Monday
25,105949265.95942687
757,17143461.760821087
1870,105949265.95942684
2,2, 1, 2, 0, 8, 0.00,60.00,Monday
25,206305593.05254305
757,15838920.74414976
1870,206305593.05254299
2,2, 1, 2, 0, 9, 0.00,60.00,Monday
25,300428598.78655835
757,8067068.920487126
1870,300428598.7865582
2,2, 1, 2, 0,10, 0.00,60.00,Monday
25,261685082.13638894
757,6791184.0
1870,261685082.13638888
2,2, 1, 2, 0,11, 0.00,60.00,Monday
25,256793992.68375809
757,6791184.0
1870,256793992.68375806
2,2, 1, 2, 0,12, 0.00,60.00,Monday
25,266013479.69952018
757,11367864.31038042
1870,266013479.6995201
2,2, 1, 2, 0,13, 0.00,60.00,Monday
25,266271900.9758239
757,25841439.456366078
1870,266271900.97582386
2,2, 1, 2, 0,14, 0.00,60.00,Monday
25,269886715.7630806
757,25620640.41258352
1870,269886715.7630806
2,2, 1, 2, 0,15, 0.00,60.00,Monday
25,256556933.04770804
757,15518495.208334256
1870,256556933.04770798
2,2, 1, 2, 0,16, 0.00,60.00,Monday
25,257364714.88299973
757,15487364.420394564
1870,257364714.88299973
2,2, 1, 2, 0,17, 0.00,60.00,Monday
25,285491191.03451916
757,20388019.77498442
1870,285491191.0345192
2,2, 1, 2, 0,18, 0.00,60.00,Monday
25,236667929.1981082
757,22838889.368780614
1870,236667929.19810815
2,2, 1, 2, 0,19, 0.00,60.00,Monday
25,129987964.0706875
757,39029891.01613834
1870,129987964.07068748
2,2, 1, 2, 0,20, 0.00,60.00,Monday
25,115152629.60503455
757,50819174.77814947
1870,115152629.60503453
2,2, 1, 2, 0,21, 0.00,60.00,Monday
25,109397537.12167037
757,68745657.66592643
1870,109397537.12167037
2,2, 1, 2, 0,22, 0.00,60.00,Monday
25,108776721.33095658
757,67752314.36298701
1870,108776721.33095658
2,2, 1, 2, 0,23, 0.00,60.00,Monday
25,77772390.65670999
757,6791184.0
1870,77772390.65670999
2,2, 1, 2, 0,24, 0.00,60.00,Monday
25,72442274.24247962
757,6791184.0
1870,72442274.24247962
2,3, 1, 3, 0, 1, 0.00,60.00,Tuesday
25,57996196.7332391
757,6791184.0
1870,57996196.7332391
2,3, 1, 3, 0, 2, 0.00,60.00,Tuesday
25,57609860.1137362
757,6791184.0
1870,57609860.1137362
2,3, 1, 3, 0, 3, 0.00,60.00,Tuesday
25,57609860.1137362
757,6791184.0
1870,57609860.1137362
2,3, 1, 3, 0, 4, 0.00,60.00,Tuesday
25,57609860.1137362
757,6791184.0
1870,57609860.1137362
2,3, 1, 3, 0, 5, 0.00,60.00,Tuesday
25,57609860.1137362
757,6791184.0
1870,57609860.1137362
2,3, 1, 3, 0, 6, 0.00,60.00,Tuesday
25,57609860.1137362
757,6791184.0
1870,57609860.1137362
2,3, 1, 3, 0, 7, 0.00,60.00,Tuesday
25,111114243.20463266
757,92708334.61397961
1870,111114243.20463266
2,3, 1, 3, 0, 8, 0.00,60.00,Tuesday
25,196744218.14102999
757,82068373.92433225
1870,196744218.14102996
2,3, 1, 3, 0, 9, 0.00,60.00,Tuesday
25,300630223.195436
757,30142604.700976015
1870,300630223.19543597
2,3, 1, 3, 0,10, 0.00,60.00,Tuesday
25,262817238.4576549
757,7487531.053873889
1870,262817238.45765484
2,3, 1, 3, 0,11, 0.00,60.00,Tuesday
25,258193845.4310061
757,6791184.0
1870,258193845.43100608
2,3, 1, 3, 0,12, 0.00,60.00,Tuesday
25,283517631.11244937
757,15946887.076819472
1870,283517631.11244937
2,3, 1, 3, 0,13, 0.00,60.00,Tuesday
25,296843936.22623637
757,25836734.419667975
1870,296843936.2262363
2,3, 1, 3, 0,14, 0.00,60.00,Tuesday
25,299462845.1609333
757,25618712.636455418
1870,299462845.16093328
2,3, 1, 3, 0,15, 0.00,60.00,Tuesday
25,283728203.82820227
757,15515703.936327894
1870,283728203.8282022
2,3, 1, 3, 0,16, 0.00,60.00,Tuesday
25,283786729.29273656
757,15483706.16431194
1870,283786729.29273656
2,3, 1, 3, 0,17, 0.00,60.00,Tuesday
25,293411295.71223166
757,20386110.875055795
1870,293411295.71223166
2,3, 1, 3, 0,18, 0.00,60.00,Tuesday
25,227292653.26520927
757,11047127.643870976
1870,227292653.26520924
2,3, 1, 3, 0,19, 0.00,60.00,Tuesday
25,128660433.62239942
757,11207477.29564129
1870,128660433.62239942
2,3, 1, 3, 0,20, 0.00,60.00,Tuesday
25,111559738.69194886
757,6911458.200151731
1870,111559738.69194886
2,3, 1, 3, 0,21, 0.00,60.00,Tuesday
25,101390163.22982311
757,13690864.796441038
1870,101390163.22982311
2,3, 1, 3, 0,22, 0.00,60.00,Tuesday
25,98398679.62221971
757,38944695.96284194
1870,98398679.62221973
2,3, 1, 3, 0,23, 0.00,60.00,Tuesday
25,77772390.65670999
757,6791184.0
1870,77772390.65670999
2,3, 1, 3, 0,24, 0.00,60.00,Tuesday
25,72442274.24247962
757,6791184.0
1870,72442274.24247962
2,4, 1, 4, 0, 1, 0.00,60.00,Wednesday
25,57996196.7332391
757,6791184.0
1870,57996196.7332391
2,4, 1, 4, 0, 2, 0.00,60.00,Wednesday
25,57609860.1137362
757,6791184.0
1870,57609860.1137362
2,4, 1, 4, 0, 3, 0.00,60.00,Wednesday
25,57609860.1137362
757,6791184.0
1870,57609860.1137362
2,4, 1, 4, 0, 4, 0.00,60.00,Wednesday
25,57609860.1137362
757,6791184.0
1870,57609860.1137362
2,4, 1, 4, 0, 5, 0.00,60.00,Wednesday
25,57609860.1137362
757,6791184.0
1870,57609860.1137362
2,4, 1, 4, 0, 6, 0.00,60.00,Wednesday
25,57609860.1137362
757,6791184.0
1870,57609860.1137362
2,4, 1, 4, 0, 7, 0.00,60.00,Wednesday
25,93725715.24894475
757,57967889.33616234
1870,93725715.24894476
2,4, 1, 4, 0, 8, 0.00,60.00,Wednesday
25,159001788.76613603
757,22698150.348278539
1870,159001788.76613603
2,4, 1, 4, 0, 9, 0.00,60.00,Wednesday
25,296208966.7051927
757,6791184.0
1870,296208966.7051926
2,4, 1, 4, 0,10, 0.00,60.00,Wednesday
25,275970361.77371028
757,6791184.0
1870,275970361.77371028
2,4, 1, 4, 0,11, 0.00,60.00,Wednesday
25,281856352.8287272
757,6791184.0
1870,281856352.8287271
2,4, 1, 4, 0,12, 0.00,60.00,Wednesday
25,298739051.9779834
757,15947396.408655078
1870,298739051.97798338
2,4, 1, 4, 0,13, 0.00,60.00,Wednesday
25,302500650.42407706
757,25838652.260834017
1870,302500650.424077
2,4, 1, 4, 0,14, 0.00,60.00,Wednesday
25,313766705.75118127
757,25619340.84060882
1870,313766705.75118127
2,4, 1, 4, 0,15, 0.00,60.00,Wednesday
25,299742683.7181087
757,15515095.318828807
1870,299742683.7181086
2,4, 1, 4, 0,16, 0.00,60.00,Wednesday
25,294789320.18236246
757,15482816.288772766
1870,294789320.18236246
2,4, 1, 4, 0,17, 0.00,60.00,Wednesday
25,306363592.42719587
757,20386612.44877528
1870,306363592.42719587
2,4, 1, 4, 0,18, 0.00,60.00,Wednesday
25,234743447.66033868
757,11045902.54481966
1870,234743447.66033865
2,4, 1, 4, 0,19, 0.00,60.00,Wednesday
25,131024417.5736672
757,10977978.940294937
1870,131024417.57366717
2,4, 1, 4, 0,20, 0.00,60.00,Wednesday
25,111559738.69194886
757,9494850.374239833
1870,111559738.69194886
2,4, 1, 4, 0,21, 0.00,60.00,Wednesday
25,100901029.364719
757,12427485.35655166
1870,100901029.364719
2,4, 1, 4, 0,22, 0.00,60.00,Wednesday
25,96258131.91784151
757,15809612.447684775
1870,96258131.91784151
2,4, 1, 4, 0,23, 0.00,60.00,Wednesday
25,77772390.65670999
757,6791184.0
1870,77772390.65670999
2,4, 1, 4, 0,24, 0.00,60.00,Wednesday
25,72442274.24247962
757,6791184.0
1870,72442274.24247962
2,5, 1, 5, 0, 1, 0.00,60.00,Thursday
25,57996196.7332391
757,6791184.0
1870,57996196.7332391
2,5, 1, 5, 0, 2, 0.00,60.00,Thursday
25,57609860.1137362
757,6791184.0
1870,57609860.1137362
2,5, 1, 5, 0, 3, 0.00,60.00,Thursday
25,57609860.1137362
757,6791184.0
1870,57609860.1137362
2,5, 1, 5, 0, 4, 0.00,60.00,Thursday
25,57609860.1137362
757,6791184.0
1870,57609860.1137362
2,5, 1, 5, 0, 5, 0.00,60.00,Thursday
25,57609860.1137362
757,6791184.0
1870,57609860.1137362
2,5, 1, 5, 0, 6, 0.00,60.00,Thursday
25,57609860.1137362
757,6791184.0
1870,57609860.1137362
2,5, 1, 5, 0, 7, 0.00,60.00,Thursday
25,89722319.79179794
757,69392056.64176965
1870,89722319.79179794
2,5, 1, 5, 0, 8, 0.00,60.00,Thursday
25,157096987.58471958
757,51680840.31390658
1870,157096987.58471958
2,5, 1, 5, 0, 9, 0.00,60.00,Thursday
25,297831847.6394925
757,12784066.386484806
1870,297831847.63949248
2,5, 1, 5, 0,10, 0.00,60.00,Thursday
25,271198661.4107453
757,6791184.0
1870,271198661.4107454
2,5, 1, 5, 0,11, 0.00,60.00,Thursday
25,277701502.63050308
757,6791184.0
1870,277701502.630503
2,5, 1, 5, 0,12, 0.00,60.00,Thursday
25,294539912.6358388
757,15947909.79651622
1870,294539912.6358388
2,5, 1, 5, 0,13, 0.00,60.00,Thursday
25,297950453.5850165
757,25840924.264949118
1870,297950453.5850165
2,5, 1, 5, 0,14, 0.00,60.00,Thursday
25,304045589.25702229
757,25621044.909884506
1870,304045589.2570222
2,5, 1, 5, 0,15, 0.00,60.00,Thursday
25,287139433.8800393
757,15516314.255504402
1870,287139433.8800392
2,5, 1, 5, 0,16, 0.00,60.00,Thursday
25,281113463.04567107
757,15483937.134330329
1870,281113463.0456709
2,5, 1, 5, 0,17, 0.00,60.00,Thursday
25,289221372.2577329
757,20387752.962798396
1870,289221372.25773289
2,5, 1, 5, 0,18, 0.00,60.00,Thursday
25,227363687.50472898
757,11038241.809442459
1870,227363687.50472898
2,5, 1, 5, 0,19, 0.00,60.00,Thursday
25,128973682.7223565
757,10977687.65025933
1870,128973682.7223565
2,5, 1, 5, 0,20, 0.00,60.00,Thursday
25,111559738.69194886
757,12021732.51766733
1870,111559738.69194886
2,5, 1, 5, 0,21, 0.00,60.00,Thursday
25,100901029.364719
757,24952381.902849445
1870,100901029.364719
2,5, 1, 5, 0,22, 0.00,60.00,Thursday
25,96258131.91784151
757,18056121.48356784
1870,96258131.91784151
2,5, 1, 5, 0,23, 0.00,60.00,Thursday
25,77772390.65670999
757,6791184.0
1870,77772390.65670999
2,5, 1, 5, 0,24, 0.00,60.00,Thursday
25,72442274.24247962
757,6791184.0
1870,72442274.24247962
2,6, 1, 6, 0, 1, 0.00,60.00,Friday
25,57996196.7332391
757,6791184.0
1870,57996196.7332391
2,6, 1, 6, 0, 2, 0.00,60.00,Friday
25,57609860.1137362
757,6791184.0
1870,57609860.1137362
2,6, 1, 6, 0, 3, 0.00,60.00,Friday
25,57609860.1137362
757,6791184.0
1870,57609860.1137362
2,6, 1, 6, 0, 4, 0.00,60.00,Friday
25,57609860.1137362
757,6791184.0
1870,57609860.1137362
2,6, 1, 6, 0, 5, 0.00,60.00,Friday
25,57609860.1137362
757,6791184.0
1870,57609860.1137362
2,6, 1, 6, 0, 6, 0.00,60.00,Friday
25,57609860.1137362
757,6791184.0
1870,57609860.1137362
2,6, 1, 6, 0, 7, 0.00,60.00,Friday
25,89020742.23155928
757,36766076.601510528
1870,89020742.23155928
2,6, 1, 6, 0, 8, 0.00,60.00,Friday
25,152878155.21714539
757,30395565.566660137
1870,152878155.21714539
2,6, 1, 6, 0, 9, 0.00,60.00,Friday
25,298543546.9648933
757,12288051.60226609
1870,298543546.9648932
2,6, 1, 6, 0,10, 0.00,60.00,Friday
25,276092696.50793847
757,6791184.0
1870,276092696.5079384
2,6, 1, 6, 0,11, 0.00,60.00,Friday
25,285822536.45472869
757,6791184.0
1870,285822536.4547286
2,6, 1, 6, 0,12, 0.00,60.00,Friday
25,302956581.839592
757,15948596.34968045
1870,302956581.839592
2,6, 1, 6, 0,13, 0.00,60.00,Friday
25,305258097.52985808
757,25842573.532732518
1870,305258097.529858
2,6, 1, 6, 0,14, 0.00,60.00,Friday
25,315735880.67567029
757,25622554.00878589
1870,315735880.67567029
2,6, 1, 6, 0,15, 0.00,60.00,Friday
25,300496910.0461631
757,15516199.441007406
1870,300496910.046163
2,6, 1, 6, 0,16, 0.00,60.00,Friday
25,295376554.9544973
757,15483517.940809304
1870,295376554.9544972
2,6, 1, 6, 0,17, 0.00,60.00,Friday
25,304490849.87862488
757,20388039.512751577
1870,304490849.87862488
2,6, 1, 6, 0,18, 0.00,60.00,Friday
25,231247848.53048948
757,14621253.993168869
1870,231247848.53048948
2,6, 1, 6, 0,19, 0.00,60.00,Friday
25,129221228.74775054
757,22507367.821266883
1870,129221228.74775054
2,6, 1, 6, 0,20, 0.00,60.00,Friday
25,111634493.66413874
757,22791230.067562049
1870,111634493.66413874
2,6, 1, 6, 0,21, 0.00,60.00,Friday
25,100901304.18697015
757,29943853.671858886
1870,100901304.18697015
2,6, 1, 6, 0,22, 0.00,60.00,Friday
25,96258131.91784151
757,25454850.475933009
1870,96258131.91784151
2,6, 1, 6, 0,23, 0.00,60.00,Friday
25,77772390.65670999
757,6791184.0
1870,77772390.65670999
2,6, 1, 6, 0,24, 0.00,60.00,Friday
25,72442274.24247962
757,6791184.0
1870,72442274.24247962
2,7, 1, 7, 0, 1, 0.00,60.00,Saturday
25,46745513.81922844
757,6791184.0
1870,46745513.81922843
2,7, 1, 7, 0, 2, 0.00,60.00,Saturday
25,46359235.70955593
757,6791184.0
1870,46359235.709555927
2,7, 1, 7, 0, 3, 0.00,60.00,Saturday
25,46359235.70955593
757,6791184.0
1870,46359235.709555927
2,7, 1, 7, 0, 4, 0.00,60.00,Saturday
25,46359235.70955593
757,6791184.0
1870,46359235.709555927
2,7, 1, 7, 0, 5, 0.00,60.00,Saturday
25,46359235.70955593
757,6791184.0
1870,46359235.709555927
2,7, 1, 7, 0, 6, 0.00,60.00,Saturday
25,46359235.70955593
757,6791184.0
1870,46359235.709555927
2,7, 1, 7, 0, 7, 0.00,60.00,Saturday
25,89025109.42276365
757,58233423.296858217
1870,89025109.42276365
2,7, 1, 7, 0, 8, 0.00,60.00,Saturday
25,101441272.84720081
757,50955158.2735004
1870,101441272.84720081
2,7, 1, 7, 0, 9, 0.00,60.00,Saturday
25,123061219.66330305
757,10360003.188272337
1870,123061219.66330305
2,7, 1, 7, 0,10, 0.00,60.00,Saturday
25,142856860.95255519
757,6791184.0
1870,142856860.95255513
2,7, 1, 7, 0,11, 0.00,60.00,Saturday
25,152601918.69072718
757,6791184.0
1870,152601918.69072718
2,7, 1, 7, 0,12, 0.00,60.00,Saturday
25,168776720.3001751
757,6791184.0
1870,168776720.3001751
2,7, 1, 7, 0,13, 0.00,60.00,Saturday
25,124757300.87160665
757,6791184.0
1870,124757300.87160662
2,7, 1, 7, 0,14, 0.00,60.00,Saturday
25,108163996.92075143
757,6791184.0
1870,108163996.92075143
2,7, 1, 7, 0,15, 0.00,60.00,Saturday
25,92345596.3280352
757,6791184.0
1870,92345596.3280352
2,7, 1, 7, 0,16, 0.00,60.00,Saturday
25,78128991.36824037
757,6791184.0
1870,78128991.36824036
2,7, 1, 7, 0,17, 0.00,60.00,Saturday
25,80339159.31401956
757,6791184.0
1870,80339159.31401958
2,7, 1, 7, 0,18, 0.00,60.00,Saturday
25,81067366.95544718
757,6791184.0
1870,81067366.95544718
2,7, 1, 7, 0,19, 0.00,60.00,Saturday
25,66276703.53612528
757,6791184.0
1870,66276703.53612528
2,7, 1, 7, 0,20, 0.00,60.00,Saturday
25,49290893.81922844
757,6791184.0
1870,49290893.81922844
2,7, 1, 7, 0,21, 0.00,60.00,Saturday
25,48904615.70955593
757,6791184.0
1870,48904615.70955593
2,7, 1, 7, 0,22, 0.00,60.00,Saturday
25,48904615.70955593
757,6791184.0
1870,48904615.70955593
2,7, 1, 7, 0,23, 0.00,60.00,Saturday
25,48904615.70955593
757,6791184.0
1870,48904615.70955593
2,7, 1, 7, 0,24, 0.00,60.00,Saturday
25,48904615.70955593
757,6791184.0
1870,48904615.70955593
2,8, 1, 8, 0, 1, 0.00,60.00,Sunday
25,46359235.70955593
757,6791184.0
1870,46359235.709555927
2,8, 1, 8, 0, 2, 0.00,60.00,Sunday
25,46359235.70955593
757,6791184.0
1870,46359235.709555927
2,8, 1, 8, 0, 3, 0.00,60.00,Sunday
25,46359235.70955593
757,6791184.0
1870,46359235.709555927
2,8, 1, 8, 0, 4, 0.00,60.00,Sunday
25,46359235.70955593
757,6791184.0
1870,46359235.709555927
2,8, 1, 8, 0, 5, 0.00,60.00,Sunday
25,46359235.70955593
757,6791184.0
1870,46359235.709555927
2,8, 1, 8, 0, 6, 0.00,60.00,Sunday
25,46359235.70955593
757,6791184.0
1870,46359235.709555927
2,8, 1, 8, 0, 7, 0.00,60.00,Sunday
25,62835260.56584349
757,6791184.0
1870,62835260.56584349
2,8, 1, 8, 0, 8, 0.00,60.00,Sunday
25,46636956.98861474
757,6791184.0
1870,46636956.98861474
2,8, 1, 8, 0, 9, 0.00,60.00,Sunday
25,46346575.85160996
757,6791184.0
1870,46346575.85160995
2,8, 1, 8, 0,10, 0.00,60.00,Sunday
25,46288814.02369006
757,6791184.0
1870,46288814.02369006
2,8, 1, 8, 0,11, 0.00,60.00,Sunday
25,46288812.51597283
757,6791184.0
1870,46288812.51597283
2,8, 1, 8, 0,12, 0.00,60.00,Sunday
25,54573954.589125
757,6791184.0
1870,54573954.589125
2,8, 1, 8, 0,13, 0.00,60.00,Sunday
25,61035697.02641001
757,6791184.0
1870,61035697.02641001
2,8, 1, 8, 0,14, 0.00,60.00,Sunday
25,64593660.012119207
757,6791184.0
1870,64593660.012119207
2,8, 1, 8, 0,15, 0.00,60.00,Sunday
25,55394699.92718892
757,6791184.0
1870,55394699.927188929
2,8, 1, 8, 0,16, 0.00,60.00,Sunday
25,46340081.07936324
757,6791184.0
1870,46340081.079363238
2,8, 1, 8, 0,17, 0.00,60.00,Sunday
25,50045282.17486653
757,6791184.0
1870,50045282.17486654
2,8, 1, 8, 0,18, 0.00,60.00,Sunday
25,66276703.53612528
757,6791184.0
1870,66276703.53612528
2,8, 1, 8, 0,19, 0.00,60.00,Sunday
25,57105773.81922845
757,6791184.0
1870,57105773.81922844
2,8, 1, 8, 0,20, 0.00,60.00,Sunday
25,48904615.70955593
757,6791184.0
1870,48904615.70955593
2,8, 1, 8, 0,21, 0.00,60.00,Sunday
25,48904615.70955593
757,6791184.0
1870,48904615.70955593
2,8, 1, 8, 0,22, 0.00,60.00,Sunday
25,48904615.70955593
757,6791184.0
1870,48904615.70955593
2,8, 1, 8, 0,23, 0.00,60.00,Sunday
25,48904615.70955593
757,6791184.0
1870,48904615.70955593
2,8, 1, 8, 0,24, 0.00,60.00,Sunday
25,48904615.70955593
757,6791184.0
1870,48904615.70955593
2,9, 1, 9, 0, 1, 0.00,60.00,Monday
25,57609860.1137362
757,6791184.0
1870,57609860.1137362
2,9, 1, 9, 0, 2, 0.00,60.00,Monday
25,57609860.1137362
757,6791184.0
1870,57609860.1137362
2,9, 1, 9, 0, 3, 0.00,60.00,Monday
25,57609860.1137362
757,6791184.0
1870,57609860.1137362
2,9, 1, 9, 0, 4, 0.00,60.00,Monday
25,57609860.1137362
757,6791184.0
1870,57609860.1137362
2,9, 1, 9, 0, 5, 0.00,60.00,Monday
25,57609860.1137362
757,6791184.0
1870,57609860.1137362
2,9, 1, 9, 0, 6, 0.00,60.00,Monday
25,57609860.1137362
757,6791184.0
1870,57609860.1137362
2,9, 1, 9, 0, 7, 0.00,60.00,Monday
25,109508608.4651904
757,96494633.3596847
1870,109508608.4651904
2,9, 1, 9, 0, 8, 0.00,60.00,Monday
25,181344011.90398256
757,79667698.1026776
1870,181344011.90398256
2,9, 1, 9, 0, 9, 0.00,60.00,Monday
25,299848571.26320609
757,28926949.93274172
1870,299848571.263206
2,9, 1, 9, 0,10, 0.00,60.00,Monday
25,263762234.53275914
757,7131793.053416562
1870,263762234.5327591
2,9, 1, 9, 0,11, 0.00,60.00,Monday
25,268826171.71978136
757,6791184.0
1870,268826171.7197813
2,9, 1, 9, 0,12, 0.00,60.00,Monday
25,294757308.4330966
757,11371178.532639347
1870,294757308.4330966
2,9, 1, 9, 0,13, 0.00,60.00,Monday
25,298276946.4390889
757,25825343.622186327
1870,298276946.4390889
2,9, 1, 9, 0,14, 0.00,60.00,Monday
25,303683505.7471414
757,25626527.273220876
1870,303683505.7471415
2,9, 1, 9, 0,15, 0.00,60.00,Monday
25,284621323.5203824
757,15531551.46699175
1870,284621323.52038237
2,9, 1, 9, 0,16, 0.00,60.00,Monday
25,276839013.7803264
757,15504208.373563325
1870,276839013.78032639
2,9, 1, 9, 0,17, 0.00,60.00,Monday
25,286936018.74600967
757,20386051.832971127
1870,286936018.74600967
2,9, 1, 9, 0,18, 0.00,60.00,Monday
25,229122293.3522485
757,11037965.460885033
1870,229122293.35224844
2,9, 1, 9, 0,19, 0.00,60.00,Monday
25,128856564.46939254
757,16649030.76400303
1870,128856564.46939254
2,9, 1, 9, 0,20, 0.00,60.00,Monday
25,111559738.69194886
757,12272301.988991209
1870,111559738.69194886
2,9, 1, 9, 0,21, 0.00,60.00,Monday
25,100945941.2240325
757,23043845.319195875
1870,100945941.2240325
2,9, 1, 9, 0,22, 0.00,60.00,Monday
25,97526973.60474128
757,48437962.42262846
1870,97526973.60474128
2,9, 1, 9, 0,23, 0.00,60.00,Monday
25,77772390.65670999
757,6791184.0
1870,77772390.65670999
2,9, 1, 9, 0,24, 0.00,60.00,Monday
25,72442274.24247962
757,6791184.0
1870,72442274.24247962
2,10, 1,10, 0, 1, 0.00,60.00,Tuesday
25,57996196.7332391
757,6791184.0
1870,57996196.7332391
2,10, 1,10, 0, 2, 0.00,60.00,Tuesday
25,57609860.1137362
757,6791184.0
1870,57609860.1137362
2,10, 1,10, 0, 3, 0.00,60.00,Tuesday
25,57609860.1137362
757,6791184.0
1870,57609860.1137362
2,10, 1,10, 0, 4, 0.00,60.00,Tuesday
25,57609860.1137362
757,6791184.0
1870,57609860.1137362
2,10, 1,10, 0, 5, 0.00,60.00,Tuesday
25,57609860.1137362
757,6791184.0
1870,57609860.1137362
2,10, 1,10, 0, 6, 0.00,60.00,Tuesday
25,57609860.1137362
757,6791184.0
1870,57609860.1137362
2,10, 1,10, 0, 7, 0.00,60.00,Tuesday
25,97931342.25495996
757,87673480.48708049
1870,97931342.25495996
2,10, 1,10, 0, 8, 0.00,60.00,Tuesday
25,164900327.1116373
757,66029743.612378139
1870,164900327.1116373
2,10, 1,10, 0, 9, 0.00,60.00,Tuesday
25,298378008.4955602
757,19791527.31548663
1870,298378008.4955602
2,10, 1,10, 0,10, 0.00,60.00,Tuesday
25,269062620.4525294
757,6791184.0
1870,269062620.4525293
2,10, 1,10, 0,11, 0.00,60.00,Tuesday
25,275659396.780838
757,6791184.0
1870,275659396.780838
2,10, 1,10, 0,12, 0.00,60.00,Tuesday
25,289334385.8667113
757,15955665.679823803
1870,289334385.86671128
2,10, 1,10, 0,13, 0.00,60.00,Tuesday
25,294872378.12723746
757,25843098.646989097
1870,294872378.1272374
2,10, 1,10, 0,14, 0.00,60.00,Tuesday
25,303802910.72438767
757,25627468.21857206
1870,303802910.72438767
2,10, 1,10, 0,15, 0.00,60.00,Tuesday
25,285985348.2884365
757,15550142.561034492
1870,285985348.2884365
2,10, 1,10, 0,16, 0.00,60.00,Tuesday
25,274123983.7171196
757,15521777.88500547
1870,274123983.7171195
2,10, 1,10, 0,17, 0.00,60.00,Tuesday
25,286331232.4373632
757,20383038.85608148
1870,286331232.4373632
2,10, 1,10, 0,18, 0.00,60.00,Tuesday
25,228807831.61611105
757,11030326.754600075
1870,228807831.61611099
2,10, 1,10, 0,19, 0.00,60.00,Tuesday
25,128969880.31933671
757,10982535.732748602
1870,128969880.31933669
2,10, 1,10, 0,20, 0.00,60.00,Tuesday
25,111559738.69194886
757,19259304.808550493
1870,111559738.69194886
2,10, 1,10, 0,21, 0.00,60.00,Tuesday
25,100901029.364719
757,44675468.3878593
1870,100901029.364719
2,10, 1,10, 0,22, 0.00,60.00,Tuesday
25,96258131.91784151
757,56285399.03235358
1870,96258131.91784151
2,10, 1,10, 0,23, 0.00,60.00,Tuesday
25,77772390.65670999
757,6791184.0
1870,77772390.65670999
2,10, 1,10, 0,24, 0.00,60.00,Tuesday
25,72442274.24247962
757,6791184.0
1870,72442274.24247962
2,11, 1,11, 0, 1, 0.00,60.00,Wednesday
25,57996196.7332391
757,6791184.0
1870,57996196.7332391
2,11, 1,11, 0, 2, 0.00,60.00,Wednesday
25,57609860.1137362
757,6791184.0
1870,57609860.1137362
2,11, 1,11, 0, 3, 0.00,60.00,Wednesday
25,57609860.1137362
757,6791184.0
1870,57609860.1137362
2,11, 1,11, 0, 4, 0.00,60.00,Wednesday
25,57609860.1137362
757,6791184.0
1870,57609860.1137362
2,11, 1,11, 0, 5, 0.00,60.00,Wednesday
25,57609860.1137362
757,6791184.0
1870,57609860.1137362
2,11, 1,11, 0, 6, 0.00,60.00,Wednesday
25,57609860.1137362
757,6791184.0
1870,57609860.1137362
2,11, 1,11, 0, 7, 0.00,60.00,Wednesday
25,90667813.33506635
757,77112755.05070766
1870,90667813.33506634
2,11, 1,11, 0, 8, 0.00,60.00,Wednesday
25,158543380.37078966
757,60145637.38683569
1870,158543380.37078966
2,11, 1,11, 0, 9, 0.00,60.00,Wednesday
25,298892825.7809932
757,25378731.250350279
1870,298892825.78099319
2,11, 1,11, 0,10, 0.00,60.00,Wednesday
25,265838172.75117783
757,6951645.1805204539
1870,265838172.7511778
2,11, 1,11, 0,11, 0.00,60.00,Wednesday
25,262406561.2215836
757,6791184.0
1870,262406561.22158358
2,11, 1,11, 0,12, 0.00,60.00,Wednesday
25,288329538.0545196
757,15959210.2924838
1870,288329538.0545196
2,11, 1,11, 0,13, 0.00,60.00,Wednesday
25,292520684.1984837
757,25843037.767873
1870,292520684.1984837
2,11, 1,11, 0,14, 0.00,60.00,Wednesday
25,297961205.3350711
757,25626793.805965369
1870,297961205.3350711
2,11, 1,11, 0,15, 0.00,60.00,Wednesday
25,280079292.6256715
757,15550049.646416396
1870,280079292.62567147
2,11, 1,11, 0,16, 0.00,60.00,Wednesday
25,269724168.81176349
757,15518272.797094737
1870,269724168.8117634
2,11, 1,11, 0,17, 0.00,60.00,Wednesday
25,285746740.4319217
757,20381224.526823597
1870,285746740.4319217
2,11, 1,11, 0,18, 0.00,60.00,Wednesday
25,231929276.54616864
757,12755667.095938109
1870,231929276.54616855
2,11, 1,11, 0,19, 0.00,60.00,Wednesday
25,129135187.62705483
757,19289719.42962626
1870,129135187.62705483
2,11, 1,11, 0,20, 0.00,60.00,Wednesday
25,111579313.38241059
757,16791898.205000685
1870,111579313.38241062
2,11, 1,11, 0,21, 0.00,60.00,Wednesday
25,100901029.364719
757,18726138.8375388
1870,100901029.364719
2,11, 1,11, 0,22, 0.00,60.00,Wednesday
25,96258131.91784151
757,37541843.17189095
1870,96258131.91784151
2,11, 1,11, 0,23, 0.00,60.00,Wednesday
25,77772390.65670999
757,6791184.0
1870,77772390.65670999
2,11, 1,11, 0,24, 0.00,60.00,Wednesday
25,72442274.24247962
757,6791184.0
1870,72442274.24247962
2,12, 1,12, 0, 1, 0.00,60.00,Thursday
25,57996196.7332391
757,6791184.0
1870,57996196.7332391
2,12, 1,12, 0, 2, 0.00,60.00,Thursday
25,57609860.1137362
757,6791184.0
1870,57609860.1137362
2,12, 1,12, 0, 3, 0.00,60.00,Thursday
25,57609860.1137362
757,6791184.0
1870,57609860.1137362
2,12, 1,12, 0, 4, 0.00,60.00,Thursday
25,57609860.1137362
757,6791184.0
1870,57609860.1137362
2,12, 1,12, 0, 5, 0.00,60.00,Thursday
25,57609860.1137362
757,6791184.0
1870,57609860.1137362
2,12, 1,12, 0, 6, 0.00,60.00,Thursday
25,57609860.1137362
757,6791184.0
1870,57609860.1137362
2,12, 1,12, 0, 7, 0.00,60.00,Thursday
25,89019891.2850349
757,53580914.19686556
1870,89019891.2850349
2,12, 1,12, 0, 8, 0.00,60.00,Thursday
25,151118364.52765776
757,50279245.13465239
1870,151118364.52765776
2,12, 1,12, 0, 9, 0.00,60.00,Thursday
25,298676441.05150488
757,37271768.09275178
1870,298676441.0515048
2,12, 1,12, 0,10, 0.00,60.00,Thursday
25,266649902.49666245
757,11897387.402905222
1870,266649902.49666239
2,12, 1,12, 0,11, 0.00,60.00,Thursday
25,259961688.77218295
757,6791184.0
1870,259961688.77218295
2,12, 1,12, 0,12, 0.00,60.00,Thursday
25,282906996.6748345
757,12042181.864660697
1870,282906996.6748345
2,12, 1,12, 0,13, 0.00,60.00,Thursday
25,299768009.65848687
757,25893265.101452274
1870,299768009.65848687
2,12, 1,12, 0,14, 0.00,60.00,Thursday
25,308308732.65705838
757,24866337.742397734
1870,308308732.65705838
2,12, 1,12, 0,15, 0.00,60.00,Thursday
25,291076777.93173989
757,15534374.248584815
1870,291076777.93173989
2,12, 1,12, 0,16, 0.00,60.00,Thursday
25,292295289.8342928
757,15512174.093127206
1870,292295289.83429279
2,12, 1,12, 0,17, 0.00,60.00,Thursday
25,298127722.21724626
757,20371429.04599584
1870,298127722.2172462
2,12, 1,12, 0,18, 0.00,60.00,Thursday
25,227840877.62527148
757,15308740.853002657
1870,227840877.62527145
2,12, 1,12, 0,19, 0.00,60.00,Thursday
25,129069339.5324587
757,6791184.0
1870,129069339.53245868
2,12, 1,12, 0,20, 0.00,60.00,Thursday
25,111571337.52150968
757,11060905.554130959
1870,111571337.52150968
2,12, 1,12, 0,21, 0.00,60.00,Thursday
25,100901029.364719
757,8192014.599772409