Program Version,EnergyPlus, Version 9.0.1-bb7ca4f0da, YMD=2022.04.26 19:50
1,5,Environment Title[],Latitude[deg],Longitude[deg],Time Zone[],Elevation[m]
2,8,Day of Simulation[],Month[],Day of Month[],DST Indicator[1=yes 0=no],Hour[],StartMinute[],EndMinute[],DayType
3,5,Cumulative Day of Simulation[],Month[],Day of Month[],DST Indicator[1=yes 0=no],DayType  ! When Daily Report Variables Requested
4,2,Cumulative Days of Simulation[],Month[]  ! When Monthly Report Variables Requested
5,1,Cumulative Days of Simulation[] ! When Run Period Report Variables Requested
6,1,Calendar Year of Simulation[] ! When Annual Report Variables Requested
7,1,Environment,Site Outdoor Air Drybulb Temperature [C] !Hourly
2176,1,PACU_VAV_BOT,Air System Total Heating Energy [J] !Hourly
2177,1,PACU_VAV_BOT,Air System Total Cooling Energy [J] !Hourly
2178,1,PACU_VAV_MID,Air System Total Heating Energy [J] !Hourly
2179,1,PACU_VAV_MID,Air System Total Cooling Energy [J] !Hourly
2180,1,PACU_VAV_TOP,Air System Total Heating Energy [J] !Hourly
2181,1,PACU_VAV_TOP,Air System Total Cooling Energy [J] !Hourly
End of Data Dictionary
1,RUNPERIOD 1,  32.58,-116.98,  -8.00, 159.00
2,1, 1, 1, 0, 1, 0.00,60.00,Holiday
7,8.416666666666666
2176,0.0
2177,0.0
2178,0.0
2179,0.0
2180,0.0
2181,0.0
2,1, 1, 1, 0, 2, 0.00,60.00,Holiday
7,8.0
2176,0.0
2177,0.0
2178,0.0
2179,0.0
2180,0.0
2181,0.0
2,1, 1, 1, 0, 3, 0.00,60.00,Holiday
7,8.583333333333334
2176,0.0
2177,0.0
2178,0.0
2179,0.0
2180,0.0
2181,0.0
2,1, 1, 1, 0, 4, 0.00,60.00,Holiday
7,9.0
2176,0.0
2177,0.0
2178,0.0
2179,0.0
2180,0.0
2181,0.0
2,1, 1, 1, 0, 5, 0.00,60.00,Holiday
7,9.0
2176,0.0
2177,0.0
2178,0.0
2179,0.0
2180,0.0
2181,0.0
2,1, 1, 1, 0, 6, 0.00,60.00,Holiday
7,8.416666666666666
2176,0.0
2177,0.0
2178,0.0
2179,0.0
2180,0.0
2181,0.0
2,1, 1, 1, 0, 7, 0.00,60.00,Holiday
7,8.583333333333334
2176,0.0
2177,0.0
2178,0.0
2179,0.0
2180,0.0
2181,0.0
2,1, 1, 1, 0, 8, 0.00,60.00,Holiday
7,9.583333333333334
2176,0.0
2177,0.0
2178,0.0
2179,0.0
2180,0.0
2181,0.0
2,1, 1, 1, 0, 9, 0.00,60.00,Holiday
7,11.166666666666666
2176,0.0
2177,0.0
2178,0.0
2179,0.0
2180,0.0
2181,0.0
2,1, 1, 1, 0,10, 0.00,60.00,Holiday
7,12.583333333333334
2176,0.0
2177,0.0
2178,0.0
2179,0.0
2180,0.0
2181,0.0
2,1, 1, 1, 0,11, 0.00,60.00,Holiday
7,13.0
2176,0.0
2177,0.0
2178,0.0
2179,0.0
2180,0.0
2181,0.0
2,1, 1, 1, 0,12, 0.00,60.00,Holiday
7,13.0
2176,0.0
2177,0.0
2178,0.0
2179,0.0
2180,0.0
2181,0.0
2,1, 1, 1, 0,13, 0.00,60.00,Holiday
7,13.0
2176,0.0
2177,0.0
2178,0.0
2179,0.0
2180,0.0
2181,0.0
2,1, 1, 1, 0,14, 0.00,60.00,Holiday
7,13.0
2176,0.0
2177,0.0
2178,0.0
2179,0.0
2180,0.0
2181,0.0
2,1, 1, 1, 0,15, 0.00,60.00,Holiday
7,13.0
2176,0.0
2177,0.0
2178,0.0
2179,0.0
2180,0.0
2181,0.0
2,1, 1, 1, 0,16, 0.00,60.00,Holiday
7,13.0
2176,0.0
2177,0.0
2178,0.0
2179,0.0
2180,0.0
2181,0.0
2,1, 1, 1, 0,17, 0.00,60.00,Holiday
7,11.833333333333334
2176,0.0
2177,0.0
2178,0.0
2179,0.0
2180,0.0
2181,0.0
2,1, 1, 1, 0,18, 0.00,60.00,Holiday
7,11.0
2176,0.0
2177,0.0
2178,0.0
2179,0.0
2180,0.0
2181,0.0
2,1, 1, 1, 0,19, 0.00,60.00,Holiday
7,11.0
2176,0.0
2177,0.0
2178,0.0
2179,0.0
2180,0.0
2181,0.0
2,1, 1, 1, 0,20, 0.00,60.00,Holiday
7,11.0
2176,0.0
2177,0.0
2178,0.0
2179,0.0
2180,0.0
2181,0.0
2,1, 1, 1, 0,21, 0.00,60.00,Holiday
7,11.0
2176,0.0
2177,0.0
2178,0.0
2179,0.0
2180,0.0
2181,0.0
2,1, 1, 1, 0,22, 0.00,60.00,Holiday
7,11.0
2176,0.0
2177,0.0
2178,0.0
2179,0.0
2180,0.0
2181,0.0
2,1, 1, 1, 0,23, 0.00,60.00,Holiday
7,10.416666666666666
2176,0.0
2177,0.0
2178,0.0
2179,0.0
2180,0.0
2181,0.0
2,1, 1, 1, 0,24, 0.00,60.00,Holiday
7,9.416666666666666
2176,0.0
2177,0.0
2178,0.0
2179,0.0
2180,0.0
2181,0.0
2,2, 1, 2, 0, 1, 0.00,60.00,Monday
7,9.583333333333334
2176,0.0
2177,0.0
2178,0.0
2179,0.0
2180,0.0
2181,0.0
2,2, 1, 2, 0, 2, 0.00,60.00,Monday
7,9.416666666666666
2176,0.0
2177,0.0
2178,0.0
2179,0.0
2180,0.0
2181,0.0
2,2, 1, 2, 0, 3, 0.00,60.00,Monday
7,10.166666666666666
2176,0.0
2177,0.0
2178,0.0
2179,0.0
2180,0.0
2181,0.0
2,2, 1, 2, 0, 4, 0.00,60.00,Monday
7,10.416666666666666
2176,0.0
2177,0.0
2178,0.0
2179,0.0
2180,0.0
2181,0.0
2,2, 1, 2, 0, 5, 0.00,60.00,Monday
7,10.583333333333334
2176,0.0
2177,0.0
2178,0.0
2179,0.0
2180,0.0
2181,0.0
2,2, 1, 2, 0, 6, 0.00,60.00,Monday
7,11.0
2176,0.0
2177,0.0
2178,0.0
2179,0.0
2180,0.0
2181,0.0
2,2, 1, 2, 0, 7, 0.00,60.00,Monday
7,11.0
2176,5605541.920399778
2177,0.0
2178,8090932.904016447
2179,0.0
2180,29066779.35949611
2181,0.0
2,2, 1, 2, 0, 8, 0.00,60.00,Monday
7,11.0
2176,24235621.518814744
2177,0.0
2178,20728016.38458766
2179,0.0
2180,56182462.10687921
2181,0.0
2,2, 1, 2, 0, 9, 0.00,60.00,Monday
7,12.166666666666666
2176,6587906.308678601
2177,0.0
2178,3699994.01413572
2179,0.0
2180,11686281.874005847
2181,0.0
2,2, 1, 2, 0,10, 0.00,60.00,Monday
7,13.0
2176,3699996.6420578716
2177,0.0
2178,2211670.6703003325
2179,0.0
2180,3186101.69603708
2181,0.0
2,2, 1, 2, 0,11, 0.00,60.00,Monday
7,14.166666666666666
2176,3478679.350161001
2177,3082085.617904583
2178,2370358.6346702978
2179,2193723.054110284
2180,2362654.9441695187
2181,2238428.352947103
2,2, 1, 2, 0,12, 0.00,60.00,Monday
7,14.416666666666666
2176,4006086.4377712479
2177,4011443.8396811538
2178,3000718.16433591
2179,2949007.931441762
2180,2703780.9304294285
2181,2799896.8122159398
2,2, 1, 2, 0,13, 0.00,60.00,Monday
7,14.0
2176,4188715.071310746
2177,0.0
2178,2894810.3132013517
2179,0.0
2180,2863218.9518099834
2181,0.0
2,2, 1, 2, 0,14, 0.00,60.00,Monday
7,14.0
2176,4494168.83164466
2177,0.0
2178,3228680.346825264
2179,0.0
2180,2969658.310258251
2181,0.0
2,2, 1, 2, 0,15, 0.00,60.00,Monday
7,13.416666666666666
2176,4192134.863283228
2177,0.0
2178,2940795.8782492948
2179,0.0
2180,2914045.2055167874
2181,0.0
2,2, 1, 2, 0,16, 0.00,60.00,Monday
7,13.0
2176,4213063.88276743
2177,0.0
2178,2984511.632072923
2179,0.0
2180,2740128.0341265585
2181,0.0
2,2, 1, 2, 0,17, 0.00,60.00,Monday
7,11.833333333333334
2176,4836975.830565043
2177,0.0
2178,3727982.3891500488
2179,0.0
2180,3228025.675211728
2181,0.0
2,2, 1, 2, 0,18, 0.00,60.00,Monday
7,9.833333333333334
2176,16540863.176755256
2177,0.0
2178,11138938.098102143
2179,0.0
2180,10739530.117316459
2181,0.0
2,2, 1, 2, 0,19, 0.00,60.00,Monday
7,9.0
2176,11939365.611187352
2177,428612.16494239846
2178,14210708.03268039
2179,0.0
2180,16966165.213930753
2181,0.0
2,2, 1, 2, 0,20, 0.00,60.00,Monday
7,7.833333333333333
2176,16005856.46167456
2177,0.0
2178,18472985.257247904
2179,0.0
2180,24539696.834380285
2181,0.0
2,2, 1, 2, 0,21, 0.00,60.00,Monday
7,6.416666666666667
2176,21492638.421234896
2177,0.0
2178,24917409.066822415
2179,0.0
2180,33460540.494672479
2181,0.0
2,2, 1, 2, 0,22, 0.00,60.00,Monday
7,6.583333333333333
2176,21589544.710318589
2177,0.0
2178,25542414.203091347
2179,0.0
2180,36413894.69356202
2181,0.0
2,2, 1, 2, 0,23, 0.00,60.00,Monday
7,6.416666666666667
2176,0.0
2177,0.0
2178,0.0
2179,0.0
2180,0.0
2181,0.0
2,2, 1, 2, 0,24, 0.00,60.00,Monday
7,6.583333333333333
2176,0.0
2177,0.0
2178,0.0
2179,0.0
2180,0.0
2181,0.0
2,3, 1, 3, 0, 1, 0.00,60.00,Tuesday
7,6.416666666666667
2176,0.0
2177,0.0
2178,0.0
2179,0.0
2180,0.0
2181,0.0
2,3, 1, 3, 0, 2, 0.00,60.00,Tuesday
7,4.25
2176,0.0
2177,0.0
2178,0.0
2179,0.0
2180,0.0
2181,0.0
2,3, 1, 3, 0, 3, 0.00,60.00,Tuesday
7,4.166666666666667
2176,0.0
2177,0.0
2178,0.0
2179,0.0
2180,0.0
2181,0.0
2,3, 1, 3, 0, 4, 0.00,60.00,Tuesday
7,4.416666666666667
2176,0.0
2177,0.0
2178,0.0
2179,0.0
2180,0.0
2181,0.0
2,3, 1, 3, 0, 5, 0.00,60.00,Tuesday
7,3.4166666666666667
2176,0.0
2177,0.0
2178,0.0
2179,0.0
2180,0.0
2181,0.0
2,3, 1, 3, 0, 6, 0.00,60.00,Tuesday
7,4.166666666666667
2176,0.0
2177,0.0
2178,0.0
2179,0.0
2180,0.0
2181,0.0
2,3, 1, 3, 0, 7, 0.00,60.00,Tuesday
7,3.8333333333333337
2176,23117179.210824007
2177,0.0
2178,32874631.362038837
2179,0.0
2180,58700379.19049213
2181,0.0
2,3, 1, 3, 0, 8, 0.00,60.00,Tuesday
7,5.333333333333333
2176,42893784.54405293
2177,0.0
2178,37427518.97550941
2179,0.0
2180,69954017.60292357
2181,0.0
2,3, 1, 3, 0, 9, 0.00,60.00,Tuesday
7,9.333333333333334
2176,7842748.026644974
2177,3994492.210207977
2178,13748473.467060088
2179,0.0
2180,21472098.538263136
2181,0.0
2,3, 1, 3, 0,10, 0.00,60.00,Tuesday
7,12.166666666666666
2176,4258950.210829784
2177,0.0
2178,3386579.754635176
2179,0.0
2180,5137160.8254404109
2181,0.0
2,3, 1, 3, 0,11, 0.00,60.00,Tuesday
7,14.166666666666666
2176,4043962.3636725025
2177,3113658.5723668525
2178,2715115.343241371
2179,2145446.2727518517
2180,2609941.052649949
2181,2151515.6667622516
2,3, 1, 3, 0,12, 0.00,60.00,Tuesday
7,16.75
2176,4531007.719207238
2177,27652602.02967038
2178,3290974.9138654035
2179,19936268.854628229
2180,2927938.356310084
2181,18767533.78103786
2,3, 1, 3, 0,13, 0.00,60.00,Tuesday
7,18.583333333333333
2176,4182853.425520286
2177,43575875.45622592
2178,3093590.045266329
2179,31776788.82081326
2180,3065812.501708968
2181,32230949.926237808
2,3, 1, 3, 0,14, 0.00,60.00,Tuesday
7,17.833333333333333
2176,5299313.437481215
2177,42717961.0769904
2178,3495256.1940945379
2179,28919211.35885687
2180,3240698.6451565006
2181,28213547.671348894
2,3, 1, 3, 0,15, 0.00,60.00,Tuesday
7,17.583333333333333
2176,4787707.665570137
2177,37536175.88684752
2178,3288627.795183953
2179,25960193.31583649
2180,3241259.7373589829
2181,26359031.82857759
2,3, 1, 3, 0,16, 0.00,60.00,Tuesday
7,17.416666666666669
2176,4830481.341508181
2177,35952711.25277077
2178,3355241.5297453759
2179,25133620.1549735
2180,3084015.0574781575
2181,24280803.245315274
2,3, 1, 3, 0,17, 0.00,60.00,Tuesday
7,14.666666666666666
2176,5331665.982387687
2177,10060353.288456642
2178,2664829.6905617516
2179,5988206.089295584
2180,2538446.9599774919
2181,5975212.04998922
2,3, 1, 3, 0,18, 0.00,60.00,Tuesday
7,13.0
2176,8673479.665891454
2177,0.0
2178,2211670.6703003386
2179,0.0
2180,2244263.3747711658
2181,0.0
2,3, 1, 3, 0,19, 0.00,60.00,Tuesday
7,11.833333333333334
2176,2964058.3296497894
2177,0.0
2178,3617803.366365108
2179,0.0
2180,3832415.722572678
2181,0.0
2,3, 1, 3, 0,20, 0.00,60.00,Tuesday
7,11.583333333333334
2176,2887577.8991594135
2177,0.0
2178,4072212.3114051895
2179,0.0
2180,5695015.768886569
2181,0.0
2,3, 1, 3, 0,21, 0.00,60.00,Tuesday
7,10.833333333333334
2176,5281438.800130362
2177,0.0
2178,7400900.709226005
2179,0.0
2180,10473298.369225875
2181,0.0
2,3, 1, 3, 0,22, 0.00,60.00,Tuesday
7,8.833333333333334
2176,12528719.463132179
2177,0.0
2178,14770074.801329624
2179,0.0
2180,20584960.199230479
2181,0.0
2,3, 1, 3, 0,23, 0.00,60.00,Tuesday
7,9.75
2176,0.0
2177,0.0
2178,0.0
2179,0.0
2180,0.0
2181,0.0
2,3, 1, 3, 0,24, 0.00,60.00,Tuesday
7,9.25
2176,0.0
2177,0.0
2178,0.0
2179,0.0
2180,0.0
2181,0.0
2,4, 1, 4, 0, 1, 0.00,60.00,Wednesday
7,8.0
2176,0.0
2177,0.0
2178,0.0
2179,0.0
2180,0.0
2181,0.0
2,4, 1, 4, 0, 2, 0.00,60.00,Wednesday
7,8.583333333333334
2176,0.0
2177,0.0
2178,0.0
2179,0.0
2180,0.0
2181,0.0
2,4, 1, 4, 0, 3, 0.00,60.00,Wednesday
7,10.166666666666666
2176,0.0
2177,0.0
2178,0.0
2179,0.0
2180,0.0
2181,0.0
2,4, 1, 4, 0, 4, 0.00,60.00,Wednesday
7,9.25
2176,0.0
2177,0.0
2178,0.0
2179,0.0
2180,0.0
2181,0.0
2,4, 1, 4, 0, 5, 0.00,60.00,Wednesday
7,6.25
2176,0.0
2177,0.0
2178,0.0
2179,0.0
2180,0.0
2181,0.0
2,4, 1, 4, 0, 6, 0.00,60.00,Wednesday
7,6.166666666666667
2176,0.0
2177,0.0
2178,0.0
2179,0.0
2180,0.0
2181,0.0
2,4, 1, 4, 0, 7, 0.00,60.00,Wednesday
7,7.583333333333333
2176,16740739.217267739
2177,0.0
2178,19205836.98533503
2179,0.0
2180,30723919.723446929
2181,0.0
2,4, 1, 4, 0, 8, 0.00,60.00,Wednesday
7,10.333333333333334
2176,21199926.56175194
2177,0.0
2178,11249134.03517938
2179,0.0
2180,26889486.618457255
2181,0.0
2,4, 1, 4, 0, 9, 0.00,60.00,Wednesday
7,13.166666666666666
2176,6511605.174869615
2177,0.0
2178,2399243.127340417
2179,0.0
2180,3182559.2172843988
2181,0.0
2,4, 1, 4, 0,10, 0.00,60.00,Wednesday
7,15.75
2176,4715900.803253192
2177,18166320.988378545
2178,2948704.3488163927
2179,11709841.472887753
2180,2432731.662009189
2181,10084531.04287747
2,4, 1, 4, 0,11, 0.00,60.00,Wednesday
7,17.583333333333333
2176,4684212.136880236
2177,36841472.48143066
2178,3073293.898359203
2179,24657021.566670363
2180,2829157.397332561
2181,23533983.271104486
2,4, 1, 4, 0,12, 0.00,60.00,Wednesday
7,18.583333333333333
2176,5363431.806168759
2177,51546792.63827141
2178,3525727.177001899
2179,34707006.710686299
2180,3203298.2947857195
2181,33294524.045036436
2,4, 1, 4, 0,13, 0.00,60.00,Wednesday
7,19.0
2176,4751623.18048556
2177,52059239.01075512
2178,3230148.9279152706
2179,35761663.86925464
2180,3312805.684599002
2181,37276188.6944988
2,4, 1, 4, 0,14, 0.00,60.00,Wednesday
7,19.583333333333333
2176,6167393.857389519
2177,68367316.69207388
2178,3571913.651380018
2179,42719508.23012379
2180,3447228.2989330028
2181,42861763.09406781
2,4, 1, 4, 0,15, 0.00,60.00,Wednesday
7,19.416666666666669
2176,5654043.037831072
2177,62985515.44968559
2178,3631670.033977947
2179,41869196.10637154
2180,3559418.21925759
2181,42525577.68846936
2,4, 1, 4, 0,16, 0.00,60.00,Wednesday
7,18.416666666666669
2176,5785881.253579331
2177,52186898.195627119
2178,3771348.7587934045
2179,35125385.393702398
2180,3389761.252330982
2181,33559743.825569767
2,4, 1, 4, 0,17, 0.00,60.00,Wednesday
7,16.833333333333333
2176,6130970.727354505
2177,34925578.6467126
2178,3077740.4031209938
2179,20005702.29521338
2180,2761235.457043791
2181,19197256.70615903
2,4, 1, 4, 0,18, 0.00,60.00,Wednesday
7,15.416666666666666
2176,5183550.644579791
2177,15854519.77326558
2178,2226263.934263763
2179,8336227.881624621
2180,2244263.374771164
2181,8551305.253618153
2,4, 1, 4, 0,19, 0.00,60.00,Wednesday
7,14.416666666666666
2176,2749864.703895176
2177,2954384.548209017
2178,2211670.6703003316
2179,2278294.611368242
2180,2244263.3747711668
2181,2357094.9094540488
2,4, 1, 4, 0,20, 0.00,60.00,Wednesday
7,11.666666666666666
2176,4004452.8605902816
2177,0.0
2178,4776042.159386128
2179,0.0
2180,5218602.1522184549
2181,0.0
2,4, 1, 4, 0,21, 0.00,60.00,Wednesday
7,10.583333333333334
2176,5509501.24794689
2177,0.0
2178,7757288.643648729
2179,0.0
2180,8946787.020769425
2181,0.0
2,4, 1, 4, 0,22, 0.00,60.00,Wednesday
7,10.416666666666666
2176,6302222.663115005
2177,0.0
2178,8543235.03425385
2179,0.0
2180,10238173.020819202
2181,0.0
2,4, 1, 4, 0,23, 0.00,60.00,Wednesday
7,11.166666666666666
2176,0.0
2177,0.0
2178,0.0
2179,0.0
2180,0.0
2181,0.0
2,4, 1, 4, 0,24, 0.00,60.00,Wednesday
7,9.666666666666666
2176,0.0
2177,0.0
2178,0.0
2179,0.0
2180,0.0
2181,0.0
2,5, 1, 5, 0, 1, 0.00,60.00,Thursday
7,8.583333333333334
2176,0.0
2177,0.0
2178,0.0
2179,0.0
2180,0.0
2181,0.0
2,5, 1, 5, 0, 2, 0.00,60.00,Thursday
7,7.833333333333333
2176,0.0
2177,0.0
2178,0.0
2179,0.0
2180,0.0
2181,0.0
2,5, 1, 5, 0, 3, 0.00,60.00,Thursday
7,6.416666666666667
2176,0.0
2177,0.0
2178,0.0
2179,0.0
2180,0.0
2181,0.0
2,5, 1, 5, 0, 4, 0.00,60.00,Thursday
7,6.583333333333333
2176,0.0
2177,0.0
2178,0.0
2179,0.0
2180,0.0
2181,0.0
2,5, 1, 5, 0, 5, 0.00,60.00,Thursday
7,7.0
2176,0.0
2177,0.0
2178,0.0
2179,0.0
2180,0.0
2181,0.0
2,5, 1, 5, 0, 6, 0.00,60.00,Thursday
7,7.583333333333333
2176,0.0
2177,0.0
2178,0.0
2179,0.0
2180,0.0
2181,0.0
2,5, 1, 5, 0, 7, 0.00,60.00,Thursday
7,6.25
2176,19833828.611369775
2177,0.0
2178,22643872.872874116
2179,0.0
2180,29190587.823223108
2181,0.0
2,5, 1, 5, 0, 8, 0.00,60.00,Thursday
7,7.333333333333333
2176,28829476.524033414
2177,0.0
2178,19632442.70123855
2179,0.0
2180,35714504.14834456
2181,0.0
2,5, 1, 5, 0, 9, 0.00,60.00,Thursday
7,11.333333333333334
2176,8245822.543777812
2177,0.0
2178,5997357.386841293
2179,0.0
2180,7821327.25156885
2181,0.0
2,5, 1, 5, 0,10, 0.00,60.00,Thursday
7,14.75
2176,5469874.538561754
2177,9625976.586210955
2178,3078940.8646369057
2179,5838515.4052099459
2180,2485066.9145624006
2181,4950046.527050364
2,5, 1, 5, 0,11, 0.00,60.00,Thursday
7,16.583333333333333
2176,5398313.269159277
2177,29269022.203995177
2178,3194479.4320141666
2179,18279813.00450755
2180,2884940.9938918447
2181,17236320.279018169
2,5, 1, 5, 0,12, 0.00,60.00,Thursday
7,17.525000000000003
2176,6168942.2458373489
2177,43420384.45944292
2178,3548626.8155283278
2179,26885677.9210535
2180,3305299.593695959
2181,26259863.217967087
2,5, 1, 5, 0,13, 0.00,60.00,Thursday
7,17.958333333333333
2176,5254208.581260906
2177,44185768.602623078
2178,3271514.67157985
2179,28935938.742912704
2180,3427659.679999041
2181,31043282.364198686
2,5, 1, 5, 0,14, 0.00,60.00,Thursday
7,17.416666666666669
2176,7231090.179951119
2177,46705194.99438595
2178,3736367.2813459539
2179,28117095.73929011
2180,3540379.5151766675
2181,28954402.90925849
2,5, 1, 5, 0,15, 0.00,60.00,Thursday
7,16.591666666666666
2176,6691694.71128202
2177,37330623.144787769
2178,4092947.395217399
2179,24214074.22114951
2180,3648865.2221054008
2181,24188998.459055887
2,5, 1, 5, 0,16, 0.00,60.00,Thursday
7,15.483333333333335
2176,6898527.921635304
2177,25053610.75120765
2178,4615159.095019229
2179,16985943.987544616
2180,3540223.600335938
2181,15292192.522561117
2,5, 1, 5, 0,17, 0.00,60.00,Thursday
7,13.791666666666666
2176,7452068.373488145
2177,3205328.1591410695
2178,3823675.1787472527
2179,1801758.2512432538
2180,2995578.2885895518
2181,1453357.8279993449
2,5, 1, 5, 0,18, 0.00,60.00,Thursday
7,12.416666666666666
2176,7941088.867281472
2177,0.0
2178,2242769.5295377557
2179,0.0
2180,2246913.3105354767
2181,0.0
2,5, 1, 5, 0,19, 0.00,60.00,Thursday
7,11.416666666666666
2176,2915750.857557897
2177,0.0
2178,3547781.526801646
2179,0.0
2180,3928412.0356066015
2181,0.0
2,5, 1, 5, 0,20, 0.00,60.00,Thursday
7,10.416666666666666
2176,5046700.8581646759
2177,0.0
2178,7906118.474323276
2179,0.0
2180,8932809.386247045
2181,0.0
2,5, 1, 5, 0,21, 0.00,60.00,Thursday
7,9.416666666666666
2176,9245661.14024293
2177,0.0
2178,11692174.556913564
2179,0.0
2180,13124866.67050153
2181,0.0
2,5, 1, 5, 0,22, 0.00,60.00,Thursday
7,10.166666666666666
2176,6896169.571908541
2177,0.0
2178,9090216.13980662
2179,0.0
2180,10818289.09249988
2181,0.0
2,5, 1, 5, 0,23, 0.00,60.00,Thursday
7,9.833333333333334
2176,0.0
2177,0.0
2178,0.0
2179,0.0
2180,0.0
2181,0.0
2,5, 1, 5, 0,24, 0.00,60.00,Thursday
7,7.25
2176,0.0
2177,0.0
2178,0.0
2179,0.0
2180,0.0
2181,0.0
2,6, 1, 6, 0, 1, 0.00,60.00,Friday
7,6.583333333333333
2176,0.0
2177,0.0
2178,0.0
2179,0.0
2180,0.0
2181,0.0
2,6, 1, 6, 0, 2, 0.00,60.00,Friday
7,7.583333333333333
2176,0.0
2177,0.0
2178,0.0
2179,0.0
2180,0.0
2181,0.0
2,6, 1, 6, 0, 3, 0.00,60.00,Friday
7,8.0
2176,0.0
2177,0.0
2178,0.0
2179,0.0
2180,0.0
2181,0.0
2,6, 1, 6, 0, 4, 0.00,60.00,Friday
7,10.333333333333334
2176,0.0
2177,0.0
2178,0.0
2179,0.0
2180,0.0
2181,0.0
2,6, 1, 6, 0, 5, 0.00,60.00,Friday
7,9.666666666666666
2176,0.0
2177,0.0
2178,0.0
2179,0.0
2180,0.0
2181,0.0
2,6, 1, 6, 0, 6, 0.00,60.00,Friday
7,8.583333333333334
2176,0.0
2177,0.0
2178,0.0
2179,0.0
2180,0.0
2181,0.0
2,6, 1, 6, 0, 7, 0.00,60.00,Friday
7,9.0
2176,11324917.874215125
2177,0.0
2178,13714710.16016225
2179,0.0
2180,16728103.364935482
2181,0.0
2,6, 1, 6, 0, 8, 0.00,60.00,Friday
7,9.0
2176,19549326.301788436
2177,162874.57297012094
2178,13939346.715632949
2179,0.0
2180,25580666.552102534
2181,0.0
2,6, 1, 6, 0, 9, 0.00,60.00,Friday
7,11.333333333333334
2176,8959580.739724968
2177,0.0
2178,5870866.031148031
2179,0.0
2180,7511329.056693081
2181,0.0
2,6, 1, 6, 0,10, 0.00,60.00,Friday
7,15.333333333333334
2176,5821861.616494689
2177,16605357.200673145
2178,3132331.0833187184
2179,9806959.55853913
2180,2498918.118733485
2181,8291940.859823976
2,6, 1, 6, 0,11, 0.00,60.00,Friday
7,17.583333333333333
2176,5727546.602666687
2177,41959171.129214327
2178,3347007.5521745767
2179,26161343.07351526
2180,2933214.4274087327
2181,24214000.137703606
2,6, 1, 6, 0,12, 0.00,60.00,Friday
7,18.583333333333333
2176,6469205.259949343
2177,57627958.85519712
2178,3725081.1004680835
2179,35920576.34429837
2180,3335810.521456157
2181,34247164.14175561
2,6, 1, 6, 0,13, 0.00,60.00,Friday
7,19.0
2176,5674932.265131447
2177,58117659.04463013
2178,3301294.6956648605
2179,36197153.70715596
2180,3416437.0168068886
2181,38018871.041295509
2,6, 1, 6, 0,14, 0.00,60.00,Friday
7,19.0
2176,7466306.465188475
2177,68115104.77687863
2178,3994113.5890228308
2179,40901545.7990721
2180,3590500.3925930114
2181,39369456.06388947
2,6, 1, 6, 0,15, 0.00,60.00,Friday
7,18.416666666666669
2176,7044535.968417965
2177,58339689.99677056
2178,4432870.207886634
2179,38435215.44089824
2180,3874364.682931347
2181,36579843.434597518
2,6, 1, 6, 0,16, 0.00,60.00,Friday
7,17.416666666666669
2176,7193244.967408623
2177,46025971.422334719
2178,5061886.863619813
2179,32535457.199059719
2180,3801225.849225128
2181,28061193.68961963
2,6, 1, 6, 0,17, 0.00,60.00,Friday
7,15.833333333333334
2176,7630112.209123048
2177,26261468.97710635
2178,4125481.103699628
2179,15823358.122436734
2180,3189854.7529974889
2181,13848777.607541077
2,6, 1, 6, 0,18, 0.00,60.00,Friday
7,11.5
2176,11899478.012912814
2177,0.0
2178,5751355.507465824
2179,0.0
2180,5640993.589849862
2181,0.0
2,6, 1, 6, 0,19, 0.00,60.00,Friday
7,9.583333333333334
2176,6224027.322432067
2177,926356.796573796
2178,11019636.20863497
2179,0.0
2180,11451587.092705192
2181,0.0
2,6, 1, 6, 0,20, 0.00,60.00,Friday
7,9.416666666666666
2176,8848026.584411692
2177,0.0
2178,11726070.049054802
2179,0.0
2180,12776676.331094729
2181,0.0
2,6, 1, 6, 0,21, 0.00,60.00,Friday
7,9.0
2176,10648683.870918656
2177,0.0
2178,13197101.393843405
2179,0.0
2180,14680431.689308007
2181,0.0
2,6, 1, 6, 0,22, 0.00,60.00,Friday
7,9.583333333333334
2176,9252424.685501159
2177,0.0
2178,11458881.58594603
2179,0.0
2180,13248638.788480193
2181,0.0
2,6, 1, 6, 0,23, 0.00,60.00,Friday
7,7.083333333333333
2176,0.0
2177,0.0
2178,0.0
2179,0.0
2180,0.0
2181,0.0
2,6, 1, 6, 0,24, 0.00,60.00,Friday
7,6.166666666666667
2176,0.0
2177,0.0
2178,0.0
2179,0.0
2180,0.0
2181,0.0
2,7, 1, 7, 0, 1, 0.00,60.00,Saturday
7,6.416666666666667
2176,0.0
2177,0.0
2178,0.0
2179,0.0
2180,0.0
2181,0.0
2,7, 1, 7, 0, 2, 0.00,60.00,Saturday
7,4.833333333333333
2176,0.0
2177,0.0
2178,0.0
2179,0.0
2180,0.0
2181,0.0
2,7, 1, 7, 0, 3, 0.00,60.00,Saturday
7,6.916666666666667
2176,0.0
2177,0.0
2178,0.0
2179,0.0
2180,0.0
2181,0.0
2,7, 1, 7, 0, 4, 0.00,60.00,Saturday
7,10.166666666666666
2176,0.0
2177,0.0
2178,0.0
2179,0.0
2180,0.0
2181,0.0
2,7, 1, 7, 0, 5, 0.00,60.00,Saturday
7,8.083333333333334
2176,0.0
2177,0.0
2178,0.0
2179,0.0
2180,0.0
2181,0.0
2,7, 1, 7, 0, 6, 0.00,60.00,Saturday
7,7.75
2176,0.0
2177,0.0
2178,0.0
2179,0.0
2180,0.0
2181,0.0
2,7, 1, 7, 0, 7, 0.00,60.00,Saturday
7,7.25
2176,16978490.10979408
2177,0.0
2178,19469989.71920389
2179,0.0
2180,24092034.30343413
2181,0.0
2,7, 1, 7, 0, 8, 0.00,60.00,Saturday
7,7.75
2176,15525825.252896794
2177,0.0
2178,18036809.87673525
2179,0.0
2180,33327963.091011857
2181,0.0
2,7, 1, 7, 0, 9, 0.00,60.00,Saturday
7,12.5
2176,3480646.278972786
2177,1011783.3199988834
2178,4381801.635607291
2179,831503.5428651534
2180,9581607.570046019
2181,839696.6737885396
2,7, 1, 7, 0,10, 0.00,60.00,Saturday
7,16.75
2176,2981436.07636901
2177,19265405.844414634
2178,2384001.239153624
2179,15410966.07020503
2180,3153665.2717657817
2181,14298637.011719956
2,7, 1, 7, 0,11, 0.00,60.00,Saturday
7,19.166666666666669
2176,3031722.4135753989
2177,37062679.76211455
2178,2550685.3516444687
2179,30792177.144663499
2180,2418371.84436377
2181,29474698.241125179
2,7, 1, 7, 0,12, 0.00,60.00,Saturday
7,19.941666666666668
2176,3426533.082016458
2177,48059708.10679623
2178,3052195.5757901438
2179,40763099.78437002
2180,2709370.8425035935
2181,37706286.50425704
2,7, 1, 7, 0,13, 0.00,60.00,Saturday
7,19.375
2176,3048597.705780379
2177,39322697.154073897
2178,2668727.192317836
2179,33348189.714725458
2180,2656589.257825381
2181,33686779.06759608
2,7, 1, 7, 0,14, 0.00,60.00,Saturday
7,17.833333333333333
2176,2751564.6110653264
2177,29107112.895657828
2178,2614783.819093659
2179,25377742.058711307
2180,2459661.0302810014
2181,25281982.141286568
2,7, 1, 7, 0,15, 0.00,60.00,Saturday
7,15.833333333333334
2176,2749864.7038951755
2177,15807192.291210682
2178,2495291.0852081857
2179,13740168.069287721
2180,2532832.340033253
2181,14238509.22323991
2,7, 1, 7, 0,16, 0.00,60.00,Saturday
7,14.416666666666666
2176,2749864.7038951797
2177,3718276.415099125
2178,2633213.3072811288
2179,3457048.4897662198
2180,2414562.792771519
2181,3257886.5686317726
2,7, 1, 7, 0,17, 0.00,60.00,Saturday
7,13.416666666666666
2176,2749864.703895187
2177,0.0
2178,2269015.2458190137
2179,0.0
2180,2246870.670457688
2181,0.0
2,7, 1, 7, 0,18, 0.00,60.00,Saturday
7,12.416666666666666
2176,2749864.7038951877
2177,0.0
2178,2211670.670300342
2179,0.0
2180,2244263.3747711668
2181,0.0
2,7, 1, 7, 0,19, 0.00,60.00,Saturday
7,11.416666666666666
2176,0.0
2177,0.0
2178,0.0
2179,0.0
2180,0.0
2181,0.0
2,7, 1, 7, 0,20, 0.00,60.00,Saturday
7,10.416666666666666
2176,0.0
2177,0.0
2178,0.0
2179,0.0
2180,0.0
2181,0.0
2,7, 1, 7, 0,21, 0.00,60.00,Saturday
7,8.833333333333334
2176,0.0
2177,0.0
2178,0.0
2179,0.0
2180,0.0
2181,0.0
2,7, 1, 7, 0,22, 0.00,60.00,Saturday
7,8.0
2176,0.0
2177,0.0
2178,0.0
2179,0.0
2180,0.0
2181,0.0
2,7, 1, 7, 0,23, 0.00,60.00,Saturday
7,8.0
2176,0.0
2177,0.0
2178,0.0
2179,0.0
2180,0.0
2181,0.0
2,7, 1, 7, 0,24, 0.00,60.00,Saturday
7,6.833333333333333
2176,0.0
2177,0.0
2178,0.0
2179,0.0
2180,0.0
2181,0.0
2,8, 1, 8, 0, 1, 0.00,60.00,Sunday
7,6.0
2176,0.0
2177,0.0
2178,0.0
2179,0.0
2180,0.0
2181,0.0
2,8, 1, 8, 0, 2, 0.00,60.00,Sunday
7,6.583333333333333
2176,0.0
2177,0.0
2178,0.0
2179,0.0
2180,0.0
2181,0.0
2,8, 1, 8, 0, 3, 0.00,60.00,Sunday
7,5.833333333333333
2176,0.0
2177,0.0
2178,0.0
2179,0.0
2180,0.0
2181,0.0
2,8, 1, 8, 0, 4, 0.00,60.00,Sunday
7,4.416666666666667
2176,0.0
2177,0.0
2178,0.0
2179,0.0
2180,0.0
2181,0.0
2,8, 1, 8, 0, 5, 0.00,60.00,Sunday
7,3.4166666666666667
2176,0.0
2177,0.0
2178,0.0
2179,0.0
2180,0.0
2181,0.0
2,8, 1, 8, 0, 6, 0.00,60.00,Sunday
7,3.0
2176,0.0
2177,0.0
2178,0.0
2179,0.0
2180,0.0
2181,0.0
2,8, 1, 8, 0, 7, 0.00,60.00,Sunday
7,1.8333333333333333
2176,0.0
2177,0.0
2178,0.0
2179,0.0
2180,0.0
2181,0.0
2,8, 1, 8, 0, 8, 0.00,60.00,Sunday
7,3.9166666666666667
2176,0.0
2177,0.0
2178,0.0
2179,0.0
2180,0.0
2181,0.0
2,8, 1, 8, 0, 9, 0.00,60.00,Sunday
7,8.333333333333334
2176,0.0
2177,0.0
2178,0.0
2179,0.0
2180,0.0
2181,0.0
2,8, 1, 8, 0,10, 0.00,60.00,Sunday
7,11.75
2176,0.0
2177,0.0
2178,0.0
2179,0.0
2180,0.0
2181,0.0
2,8, 1, 8, 0,11, 0.00,60.00,Sunday
7,14.75
2176,0.0
2177,0.0
2178,0.0
2179,0.0
2180,0.0
2181,0.0
2,8, 1, 8, 0,12, 0.00,60.00,Sunday
7,16.583333333333333
2176,1374932.351947592
2177,8760178.08814279
2178,1495048.092657858
2179,9338203.180503954
2180,0.0
2181,0.0
2,8, 1, 8, 0,13, 0.00,60.00,Sunday
7,17.0
2176,1375990.0296989294
2177,9724848.578223559
2178,1867631.8044478014
2179,14376085.359312728
2180,577595.1959084129
2181,4481870.9836686099
2,8, 1, 8, 0,14, 0.00,60.00,Sunday
7,17.0
2176,2291553.919912653
2177,17360415.10364762
2178,1597562.1716366255
2179,12561860.857449722
2180,1397811.8538021343
2181,11340501.003934412
2,8, 1, 8, 0,15, 0.00,60.00,Sunday
7,16.416666666666669
2176,1374932.351947588
2177,8298153.595519355
2178,1479698.7130180377
2179,9827899.226752578
2180,0.0
2181,0.0
2,8, 1, 8, 0,16, 0.00,60.00,Sunday
7,14.833333333333334
2176,0.0
2177,0.0
2178,368611.77838338809
2179,1761833.8938136805
2180,0.0
2181,0.0
2,8, 1, 8, 0,17, 0.00,60.00,Sunday
7,12.833333333333334
2176,0.0
2177,0.0
2178,0.0
2179,0.0
2180,0.0
2181,0.0
2,8, 1, 8, 0,18, 0.00,60.00,Sunday
7,11.416666666666666
2176,0.0
2177,0.0
2178,0.0
2179,0.0
2180,0.0
2181,0.0
2,8, 1, 8, 0,19, 0.00,60.00,Sunday
7,9.833333333333334
2176,0.0
2177,0.0
2178,0.0
2179,0.0
2180,0.0
2181,0.0
2,8, 1, 8, 0,20, 0.00,60.00,Sunday
7,9.0
2176,0.0
2177,0.0
2178,0.0
2179,0.0
2180,0.0
2181,0.0
2,8, 1, 8, 0,21, 0.00,60.00,Sunday
7,9.0
2176,0.0
2177,0.0
2178,0.0
2179,0.0
2180,0.0
2181,0.0
2,8, 1, 8, 0,22, 0.00,60.00,Sunday
7,8.825000000000001
2176,0.0
2177,0.0
2178,0.0
2179,0.0
2180,0.0
2181,0.0
2,8, 1, 8, 0,23, 0.00,60.00,Sunday
7,8.525
2176,0.0
2177,0.0
2178,0.0
2179,0.0
2180,0.0
2181,0.0
2,8, 1, 8, 0,24, 0.00,60.00,Sunday
7,8.166666666666666
2176,0.0
2177,0.0
2178,0.0
2179,0.0
2180,0.0
2181,0.0
2,9, 1, 9, 0, 1, 0.00,60.00,Monday
7,6.25
2176,0.0
2177,0.0
2178,0.0
2179,0.0
2180,0.0
2181,0.0
2,9, 1, 9, 0, 2, 0.00,60.00,Monday
7,5.583333333333333
2176,0.0
2177,0.0
2178,0.0
2179,0.0
2180,0.0
2181,0.0
2,9, 1, 9, 0, 3, 0.00,60.00,Monday
7,4.833333333333333
2176,0.0
2177,0.0
2178,0.0
2179,0.0
2180,0.0
2181,0.0
2,9, 1, 9, 0, 4, 0.00,60.00,Monday
7,4.583333333333333
2176,0.0
2177,0.0
2178,0.0
2179,0.0
2180,0.0
2181,0.0
2,9, 1, 9, 0, 5, 0.00,60.00,Monday
7,5.583333333333333
2176,0.0
2177,0.0
2178,0.0
2179,0.0
2180,0.0
2181,0.0
2,9, 1, 9, 0, 6, 0.00,60.00,Monday
7,3.6666666666666667
2176,0.0
2177,0.0