Program Version,EnergyPlus, Version 9.0.1-bb7ca4f0da, YMD=2022.04.26 19:50
1,5,Environment Title[],Latitude[deg],Longitude[deg],Time Zone[],Elevation[m]
2,8,Day of Simulation[],Month[],Day of Month[],DST Indicator[1=yes 0=no],Hour[],StartMinute[],EndMinute[],DayType
3,5,Cumulative Day of Simulation[],Month[],Day of Month[],DST Indicator[1=yes 0=no],DayType  ! When Daily Meters Requested
4,2,Cumulative Days of Simulation[],Month[]  ! When Monthly Meters Requested
5,1,Cumulative Days of Simulation[] ! When Run Period Meters Requested
6,1,Calendar Year of Simulation[] ! When Annual Meters Requested
25,1,Electricity:Facility [J] !Hourly
1870,1,ElectricityNet:Facility [J] !Hourly
757,1,Gas:Facility [J] !Hourly
End of Data Dictionary
1,RUNPERIOD 1,  32.58,-116.98,  -8.00, 159.00
2,1, 1, 1, 0, 1, 0.00,60.00,Holiday
25,46084989.846407588
757,6791184.0
1870,46084989.84640758
2,1, 1, 1, 0, 2, 0.00,60.00,Holiday
25,46085139.19145743
757,6791184.0
1870,46085139.19145743
2,1, 1, 1, 0, 3, 0.00,60.00,Holiday
25,46085139.19145743
757,6791184.0
1870,46085139.19145743
2,1, 1, 1, 0, 4, 0.00,60.00,Holiday
25,46085139.19145743
757,6791184.0
1870,46085139.19145743
2,1, 1, 1, 0, 5, 0.00,60.00,Holiday
25,46085139.19145743
757,6791184.0
1870,46085139.19145743
2,1, 1, 1, 0, 6, 0.00,60.00,Holiday
25,46085139.19145743
757,6791184.0
1870,46085139.19145743
2,1, 1, 1, 0, 7, 0.00,60.00,Holiday
25,60868338.13928088
757,6791184.0
1870,60868338.139280889
2,1, 1, 1, 0, 8, 0.00,60.00,Holiday
25,44735376.00702862
757,6791184.0
1870,44735376.00702862
2,1, 1, 1, 0, 9, 0.00,60.00,Holiday
25,44549279.07619606
757,6791184.0
1870,44549279.07619606
2,1, 1, 1, 0,10, 0.00,60.00,Holiday
25,44530631.45924014
757,6791184.0
1870,44530631.45924014
2,1, 1, 1, 0,11, 0.00,60.00,Holiday
25,44556391.98529346
757,6791184.0
1870,44556391.98529346
2,1, 1, 1, 0,12, 0.00,60.00,Holiday
25,44534147.75893186
757,6791184.0
1870,44534147.75893186
2,1, 1, 1, 0,13, 0.00,60.00,Holiday
25,44530631.45924014
757,6791184.0
1870,44530631.45924014
2,1, 1, 1, 0,14, 0.00,60.00,Holiday
25,44530631.45924014
757,6791184.0
1870,44530631.45924014
2,1, 1, 1, 0,15, 0.00,60.00,Holiday
25,44535414.47618249
757,6791184.0
1870,44535414.47618249
2,1, 1, 1, 0,16, 0.00,60.00,Holiday
25,44574137.81574895
757,6791184.0
1870,44574137.81574895
2,1, 1, 1, 0,17, 0.00,60.00,Holiday
25,51249525.1003658
757,6791184.0
1870,51249525.1003658
2,1, 1, 1, 0,18, 0.00,60.00,Holiday
25,64041927.83819962
757,6791184.0
1870,64041927.83819963
2,1, 1, 1, 0,19, 0.00,60.00,Holiday
25,56445378.60166331
757,6791184.0
1870,56445378.60166331
2,1, 1, 1, 0,20, 0.00,60.00,Holiday
25,48630519.19145743
757,6791184.0
1870,48630519.19145743
2,1, 1, 1, 0,21, 0.00,60.00,Holiday
25,48630519.19145743
757,6791184.0
1870,48630519.19145743
2,1, 1, 1, 0,22, 0.00,60.00,Holiday
25,48630519.19145743
757,6791184.0
1870,48630519.19145743
2,1, 1, 1, 0,23, 0.00,60.00,Holiday
25,48630519.19145743
757,6791184.0
1870,48630519.19145743
2,1, 1, 1, 0,24, 0.00,60.00,Holiday
25,48630519.19145743
757,6791184.0
1870,48630519.19145743
2,2, 1, 2, 0, 1, 0.00,60.00,Monday
25,57335738.170472148
757,6791184.0
1870,57335738.170472148
2,2, 1, 2, 0, 2, 0.00,60.00,Monday
25,57335738.170472148
757,6791184.0
1870,57335738.170472148
2,2, 1, 2, 0, 3, 0.00,60.00,Monday
25,57335738.170472148
757,6791184.0
1870,57335738.170472148
2,2, 1, 2, 0, 4, 0.00,60.00,Monday
25,57335738.170472148
757,6791184.0
1870,57335738.170472148
2,2, 1, 2, 0, 5, 0.00,60.00,Monday
25,57335738.170472148
757,6791184.0
1870,57335738.170472148
2,2, 1, 2, 0, 6, 0.00,60.00,Monday
25,58162225.08261116
757,6791184.0
1870,58162225.08261116
2,2, 1, 2, 0, 7, 0.00,60.00,Monday
25,103661487.0140109
757,27336793.05257218
1870,103661487.01401092
2,2, 1, 2, 0, 8, 0.00,60.00,Monday
25,198436543.90928
757,26140608.513066766
1870,198436543.90927995
2,2, 1, 2, 0, 9, 0.00,60.00,Monday
25,269716090.0218896
757,11559340.925527458
1870,269716090.02188959
2,2, 1, 2, 0,10, 0.00,60.00,Monday
25,229941443.6997522
757,6791184.0
1870,229941443.69975216
2,2, 1, 2, 0,11, 0.00,60.00,Monday
25,224216512.48019288
757,6791184.0
1870,224216512.48019288
2,2, 1, 2, 0,12, 0.00,60.00,Monday
25,233322085.9275245
757,11367859.290392658
1870,233322085.9275245
2,2, 1, 2, 0,13, 0.00,60.00,Monday
25,233814416.90988625
757,25841431.67267014
1870,233814416.90988619
2,2, 1, 2, 0,14, 0.00,60.00,Monday
25,237339511.76714225
757,25623536.2201827
1870,237339511.76714225
2,2, 1, 2, 0,15, 0.00,60.00,Monday
25,223926655.51935659
757,15518542.270526534
1870,223926655.51935656
2,2, 1, 2, 0,16, 0.00,60.00,Monday
25,224307562.14306764
757,15487418.364770638
1870,224307562.1430676
2,2, 1, 2, 0,17, 0.00,60.00,Monday
25,247547401.93713648
757,23078671.708863874
1870,247547401.93713645
2,2, 1, 2, 0,18, 0.00,60.00,Monday
25,212873734.60774724
757,32561070.957424188
1870,212873734.60774724
2,2, 1, 2, 0,19, 0.00,60.00,Monday
25,117760272.14088488
757,51587515.00014683
1870,117760272.14088488
2,2, 1, 2, 0,20, 0.00,60.00,Monday
25,103712515.86509384
757,63122460.14040081
1870,103712515.86509386
2,2, 1, 2, 0,21, 0.00,60.00,Monday
25,104140799.97535947
757,80696367.30707088
1870,104140799.9753595
2,2, 1, 2, 0,22, 0.00,60.00,Monday
25,104062739.71797052
757,79598545.10384992
1870,104062739.7179705
2,2, 1, 2, 0,23, 0.00,60.00,Monday
25,73301957.30496589
757,6791184.0
1870,73301957.3049659
2,2, 1, 2, 0,24, 0.00,60.00,Monday
25,70207061.25759147
757,6791184.0
1870,70207061.25759147
2,3, 1, 3, 0, 1, 0.00,60.00,Tuesday
25,57335709.94418401
757,6791184.0
1870,57335709.94418401
2,3, 1, 3, 0, 2, 0.00,60.00,Tuesday
25,57335738.170472148
757,6791184.0
1870,57335738.170472148
2,3, 1, 3, 0, 3, 0.00,60.00,Tuesday
25,57335738.170472148
757,6791184.0
1870,57335738.170472148
2,3, 1, 3, 0, 4, 0.00,60.00,Tuesday
25,57335738.170472148
757,6791184.0
1870,57335738.170472148
2,3, 1, 3, 0, 5, 0.00,60.00,Tuesday
25,57335738.170472148
757,6791184.0
1870,57335738.170472148
2,3, 1, 3, 0, 6, 0.00,60.00,Tuesday
25,58162225.08261116
757,6791184.0
1870,58162225.08261116
2,3, 1, 3, 0, 7, 0.00,60.00,Tuesday
25,111440351.46111113
757,106514079.06273963
1870,111440351.46111113
2,3, 1, 3, 0, 8, 0.00,60.00,Tuesday
25,192255490.9509342
757,93932981.5652596
1870,192255490.95093418
2,3, 1, 3, 0, 9, 0.00,60.00,Tuesday
25,270536173.6684208
757,38096239.26506747
1870,270536173.6684208
2,3, 1, 3, 0,10, 0.00,60.00,Tuesday
25,230875795.28863917
757,10215210.377074596
1870,230875795.28863908
2,3, 1, 3, 0,11, 0.00,60.00,Tuesday
25,225345622.86524243
757,6791184.0
1870,225345622.86524243
2,3, 1, 3, 0,12, 0.00,60.00,Tuesday
25,249279674.71444763
757,15947544.671852138
1870,249279674.71444763
2,3, 1, 3, 0,13, 0.00,60.00,Tuesday
25,261898310.96610699
757,25835658.755591759
1870,261898310.9661069
2,3, 1, 3, 0,14, 0.00,60.00,Tuesday
25,264546317.81072385
757,25620776.56623476
1870,264546317.81072385
2,3, 1, 3, 0,15, 0.00,60.00,Tuesday
25,248746219.41710837
757,15516039.608108614
1870,248746219.4171083
2,3, 1, 3, 0,16, 0.00,60.00,Tuesday
25,248262783.9022214
757,15483286.557977722
1870,248262783.90222139
2,3, 1, 3, 0,17, 0.00,60.00,Tuesday
25,254573604.14967869
757,20384692.649381844
1870,254573604.14967866
2,3, 1, 3, 0,18, 0.00,60.00,Tuesday
25,205006351.09688346
757,11044753.617433086
1870,205006351.09688337
2,3, 1, 3, 0,19, 0.00,60.00,Tuesday
25,114628121.57777454
757,14936404.557526088
1870,114628121.57777454
2,3, 1, 3, 0,20, 0.00,60.00,Tuesday
25,98265498.92110372
757,12607996.399831163
1870,98265498.92110372
2,3, 1, 3, 0,21, 0.00,60.00,Tuesday
25,93165322.14128913
757,24227883.02302473
1870,93165322.14128913
2,3, 1, 3, 0,22, 0.00,60.00,Tuesday
25,91108729.15229708
757,51563867.84754646
1870,91108729.1522971
2,3, 1, 3, 0,23, 0.00,60.00,Tuesday
25,73301957.30496589
757,6791184.0
1870,73301957.3049659
2,3, 1, 3, 0,24, 0.00,60.00,Tuesday
25,70207061.25759147
757,6791184.0
1870,70207061.25759147
2,4, 1, 4, 0, 1, 0.00,60.00,Wednesday
25,57335709.94418401
757,6791184.0
1870,57335709.94418401
2,4, 1, 4, 0, 2, 0.00,60.00,Wednesday
25,57335738.170472148
757,6791184.0
1870,57335738.170472148
2,4, 1, 4, 0, 3, 0.00,60.00,Wednesday
25,57335738.170472148
757,6791184.0
1870,57335738.170472148
2,4, 1, 4, 0, 4, 0.00,60.00,Wednesday
25,57335738.170472148
757,6791184.0
1870,57335738.170472148
2,4, 1, 4, 0, 5, 0.00,60.00,Wednesday
25,57335738.170472148
757,6791184.0
1870,57335738.170472148
2,4, 1, 4, 0, 6, 0.00,60.00,Wednesday
25,58162225.08261116
757,6791184.0
1870,58162225.08261116
2,4, 1, 4, 0, 7, 0.00,60.00,Wednesday
25,93301260.46767016
757,69626171.549091
1870,93301260.46767016
2,4, 1, 4, 0, 8, 0.00,60.00,Wednesday
25,150480253.6557601
757,33291792.58811728
1870,150480253.65576015
2,4, 1, 4, 0, 9, 0.00,60.00,Wednesday
25,263576619.00956888
757,7135841.438402628
1870,263576619.00956888
2,4, 1, 4, 0,10, 0.00,60.00,Wednesday
25,241886821.81822709
757,6791184.0
1870,241886821.81822706
2,4, 1, 4, 0,11, 0.00,60.00,Wednesday
25,246841786.28895546
757,6791184.0
1870,246841786.28895546
2,4, 1, 4, 0,12, 0.00,60.00,Wednesday
25,263330315.7947451
757,15948496.101085209
1870,263330315.79474507
2,4, 1, 4, 0,13, 0.00,60.00,Wednesday
25,266839809.49111764
757,25817598.094034085
1870,266839809.49111764
2,4, 1, 4, 0,14, 0.00,60.00,Wednesday
25,277714692.52951297
757,25619096.75301947
1870,277714692.52951297
2,4, 1, 4, 0,15, 0.00,60.00,Wednesday
25,263231730.94347496
757,15520206.85974524
1870,263231730.9434749
2,4, 1, 4, 0,16, 0.00,60.00,Wednesday
25,258020747.61880989
757,15488995.811492909
1870,258020747.6188098
2,4, 1, 4, 0,17, 0.00,60.00,Wednesday
25,265867276.23304302
757,20384251.699550567
1870,265867276.233043
2,4, 1, 4, 0,18, 0.00,60.00,Wednesday
25,210649283.6764702
757,11041848.88807101
1870,210649283.67647017
2,4, 1, 4, 0,19, 0.00,60.00,Wednesday
25,116788354.80672902
757,10970260.355885959
1870,116788354.80672902
2,4, 1, 4, 0,20, 0.00,60.00,Wednesday
25,97528109.73448248
757,15177972.17682483
1870,97528109.73448248
2,4, 1, 4, 0,21, 0.00,60.00,Wednesday
25,91339209.2203237
757,25319305.18938058
1870,91339209.2203237
2,4, 1, 4, 0,22, 0.00,60.00,Wednesday
25,86840142.43702567
757,28685427.06948131
1870,86840142.4370257
2,4, 1, 4, 0,23, 0.00,60.00,Wednesday
25,73301957.30496589
757,6791184.0
1870,73301957.3049659
2,4, 1, 4, 0,24, 0.00,60.00,Wednesday
25,70207061.25759147
757,6791184.0
1870,70207061.25759147
2,5, 1, 5, 0, 1, 0.00,60.00,Thursday
25,57335709.94418401
757,6791184.0
1870,57335709.94418401
2,5, 1, 5, 0, 2, 0.00,60.00,Thursday
25,57335738.170472148
757,6791184.0
1870,57335738.170472148
2,5, 1, 5, 0, 3, 0.00,60.00,Thursday
25,57335738.170472148
757,6791184.0
1870,57335738.170472148
2,5, 1, 5, 0, 4, 0.00,60.00,Thursday
25,57335738.170472148
757,6791184.0
1870,57335738.170472148
2,5, 1, 5, 0, 5, 0.00,60.00,Thursday
25,57335738.170472148
757,6791184.0
1870,57335738.170472148
2,5, 1, 5, 0, 6, 0.00,60.00,Thursday
25,58162225.08261116
757,6791184.0
1870,58162225.08261116
2,5, 1, 5, 0, 7, 0.00,60.00,Thursday
25,88196302.49393504
757,82093097.60471222
1870,88196302.49393505
2,5, 1, 5, 0, 8, 0.00,60.00,Thursday
25,147756855.22370906
757,67206753.02386713
1870,147756855.22370909
2,5, 1, 5, 0, 9, 0.00,60.00,Thursday
25,264660855.87834744
757,17958463.257281249
1870,264660855.8783474
2,5, 1, 5, 0,10, 0.00,60.00,Thursday
25,237529611.5675099
757,6791184.0
1870,237529611.56750987
2,5, 1, 5, 0,11, 0.00,60.00,Thursday
25,242764760.68283398
757,6791184.0
1870,242764760.68283386
2,5, 1, 5, 0,12, 0.00,60.00,Thursday
25,258997088.52176804
757,15948928.665991705
1870,258997088.521768
2,5, 1, 5, 0,13, 0.00,60.00,Thursday
25,262763785.9457555
757,25838896.538755459
1870,262763785.94575549
2,5, 1, 5, 0,14, 0.00,60.00,Thursday
25,267990365.2171547
757,25620713.804329888
1870,267990365.21715469
2,5, 1, 5, 0,15, 0.00,60.00,Thursday
25,250887950.6961096
757,15519238.715930794
1870,250887950.6961096
2,5, 1, 5, 0,16, 0.00,60.00,Thursday
25,244849093.6716301
757,15488434.44766295
1870,244849093.6716301
2,5, 1, 5, 0,17, 0.00,60.00,Thursday
25,250145913.32746483
757,20385145.995757428
1870,250145913.32746474
2,5, 1, 5, 0,18, 0.00,60.00,Thursday
25,204307709.0932751
757,11042383.421680976
1870,204307709.09327508
2,5, 1, 5, 0,19, 0.00,60.00,Thursday
25,114794007.73143725
757,14698542.48747725
1870,114794007.73143727
2,5, 1, 5, 0,20, 0.00,60.00,Thursday
25,97528109.73448248
757,24914430.87625716
1870,97528109.73448248
2,5, 1, 5, 0,21, 0.00,60.00,Thursday
25,91339209.2203237
757,39947855.134186308
1870,91339209.2203237
2,5, 1, 5, 0,22, 0.00,60.00,Thursday
25,86696647.35408427
757,30987327.27808421
1870,86696647.35408427
2,5, 1, 5, 0,23, 0.00,60.00,Thursday
25,73301957.30496589
757,6791184.0
1870,73301957.3049659
2,5, 1, 5, 0,24, 0.00,60.00,Thursday
25,70207061.25759147
757,6791184.0
1870,70207061.25759147
2,6, 1, 6, 0, 1, 0.00,60.00,Friday
25,57335709.94418401
757,6791184.0
1870,57335709.94418401
2,6, 1, 6, 0, 2, 0.00,60.00,Friday
25,57335738.170472148
757,6791184.0
1870,57335738.170472148
2,6, 1, 6, 0, 3, 0.00,60.00,Friday
25,57335738.170472148
757,6791184.0
1870,57335738.170472148
2,6, 1, 6, 0, 4, 0.00,60.00,Friday
25,57335738.170472148
757,6791184.0
1870,57335738.170472148
2,6, 1, 6, 0, 5, 0.00,60.00,Friday
25,57335738.170472148
757,6791184.0
1870,57335738.170472148
2,6, 1, 6, 0, 6, 0.00,60.00,Friday
25,58162225.08261116
757,6791184.0
1870,58162225.08261116
2,6, 1, 6, 0, 7, 0.00,60.00,Friday
25,84724060.77179924
757,49460236.654748369
1870,84724060.77179924
2,6, 1, 6, 0, 8, 0.00,60.00,Friday
25,142545559.1787937
757,42676167.05825937
1870,142545559.17879368
2,6, 1, 6, 0, 9, 0.00,60.00,Friday
25,265191698.6529662
757,17512857.640663864
1870,265191698.65296615
2,6, 1, 6, 0,10, 0.00,60.00,Friday
25,241717638.621742
757,6791184.0
1870,241717638.62174196
2,6, 1, 6, 0,11, 0.00,60.00,Friday
25,249996327.32400844
757,6791184.0
1870,249996327.32400844
2,6, 1, 6, 0,12, 0.00,60.00,Friday
25,266596916.20457209
757,15949446.941067093
1870,266596916.20457209
2,6, 1, 6, 0,13, 0.00,60.00,Friday
25,269542947.35549548
757,25840616.355135416
1870,269542947.35549548
2,6, 1, 6, 0,14, 0.00,60.00,Friday
25,278385332.24996247
757,25622256.66784355
1870,278385332.24996247
2,6, 1, 6, 0,15, 0.00,60.00,Friday
25,262683533.5077724
757,15520241.531211537
1870,262683533.5077724
2,6, 1, 6, 0,16, 0.00,60.00,Friday
25,257775292.21944166
757,15490618.155156546
1870,257775292.21944166
2,6, 1, 6, 0,17, 0.00,60.00,Friday
25,263963234.4984472
757,20385612.119678577
1870,263963234.49844719
2,6, 1, 6, 0,18, 0.00,60.00,Friday
25,208298459.72291244
757,19531238.30260265
1870,208298459.7229124
2,6, 1, 6, 0,19, 0.00,60.00,Friday
25,115275267.82922726
757,37018153.23185753
1870,115275267.82922726
2,6, 1, 6, 0,20, 0.00,60.00,Friday
25,97528199.45291636
757,39068819.18167961
1870,97528199.45291636
2,6, 1, 6, 0,21, 0.00,60.00,Friday
25,91339209.2203237
757,45458366.969263348
1870,91339209.2203237
2,6, 1, 6, 0,22, 0.00,60.00,Friday
25,86696647.35408427
757,39820994.260445337
1870,86696647.35408427
2,6, 1, 6, 0,23, 0.00,60.00,Friday
25,73301957.30496589
757,6791184.0
1870,73301957.3049659
2,6, 1, 6, 0,24, 0.00,60.00,Friday
25,70207061.25759147
757,6791184.0
1870,70207061.25759147
2,7, 1, 7, 0, 1, 0.00,60.00,Saturday
25,46085118.601663317
757,6791184.0
1870,46085118.60166331
2,7, 1, 7, 0, 2, 0.00,60.00,Saturday
25,46085139.19145743
757,6791184.0
1870,46085139.19145743
2,7, 1, 7, 0, 3, 0.00,60.00,Saturday
25,46085139.19145743
757,6791184.0
1870,46085139.19145743
2,7, 1, 7, 0, 4, 0.00,60.00,Saturday
25,46085139.19145743
757,6791184.0
1870,46085139.19145743
2,7, 1, 7, 0, 5, 0.00,60.00,Saturday
25,46085139.19145743
757,6791184.0
1870,46085139.19145743
2,7, 1, 7, 0, 6, 0.00,60.00,Saturday
25,46085139.19145743
757,6791184.0
1870,46085139.19145743
2,7, 1, 7, 0, 7, 0.00,60.00,Saturday
25,86578350.39018484
757,70829062.86388056
1870,86578350.39018485
2,7, 1, 7, 0, 8, 0.00,60.00,Saturday
25,99598486.11020999
757,65064956.091684449
1870,99598486.11020999
2,7, 1, 7, 0, 9, 0.00,60.00,Saturday
25,112997044.58156057
757,14575014.508017194
1870,112997044.58156057
2,7, 1, 7, 0,10, 0.00,60.00,Saturday
25,130915527.6317568
757,6791184.0
1870,130915527.63175681
2,7, 1, 7, 0,11, 0.00,60.00,Saturday
25,138846756.23505674
757,6791184.0
1870,138846756.23505674
2,7, 1, 7, 0,12, 0.00,60.00,Saturday
25,154825518.11740125
757,6791184.0
1870,154825518.11740128
2,7, 1, 7, 0,13, 0.00,60.00,Saturday
25,116491179.44484414
757,6791184.0
1870,116491179.44484413
2,7, 1, 7, 0,14, 0.00,60.00,Saturday
25,100355216.97583135
757,6791184.0
1870,100355216.97583133
2,7, 1, 7, 0,15, 0.00,60.00,Saturday
25,85420650.75156178
757,6791184.0
1870,85420650.75156179
2,7, 1, 7, 0,16, 0.00,60.00,Saturday
25,71850182.5390054
757,6791184.0
1870,71850182.53900542
2,7, 1, 7, 0,17, 0.00,60.00,Saturday
25,73655776.10754729
757,6791184.0
1870,73655776.1075473
2,7, 1, 7, 0,18, 0.00,60.00,Saturday
25,78211093.35461284
757,6791184.0
1870,78211093.35461284
2,7, 1, 7, 0,19, 0.00,60.00,Saturday
25,64041927.83819962
757,6791184.0
1870,64041927.83819963
2,7, 1, 7, 0,20, 0.00,60.00,Saturday
25,48630498.601663317
757,6791184.0
1870,48630498.60166331
2,7, 1, 7, 0,21, 0.00,60.00,Saturday
25,48630519.19145743
757,6791184.0
1870,48630519.19145743
2,7, 1, 7, 0,22, 0.00,60.00,Saturday
25,48630519.19145743
757,6791184.0
1870,48630519.19145743
2,7, 1, 7, 0,23, 0.00,60.00,Saturday
25,48630519.19145743
757,6791184.0
1870,48630519.19145743
2,7, 1, 7, 0,24, 0.00,60.00,Saturday
25,48630519.19145743
757,6791184.0
1870,48630519.19145743
2,8, 1, 8, 0, 1, 0.00,60.00,Sunday
25,46085139.19145743
757,6791184.0
1870,46085139.19145743
2,8, 1, 8, 0, 2, 0.00,60.00,Sunday
25,46085139.19145743
757,6791184.0
1870,46085139.19145743
2,8, 1, 8, 0, 3, 0.00,60.00,Sunday
25,46085139.19145743
757,6791184.0
1870,46085139.19145743
2,8, 1, 8, 0, 4, 0.00,60.00,Sunday
25,46085139.19145743
757,6791184.0
1870,46085139.19145743
2,8, 1, 8, 0, 5, 0.00,60.00,Sunday
25,46085139.19145743
757,6791184.0
1870,46085139.19145743
2,8, 1, 8, 0, 6, 0.00,60.00,Sunday
25,46085139.19145743
757,6791184.0
1870,46085139.19145743
2,8, 1, 8, 0, 7, 0.00,60.00,Sunday
25,60868103.81922556
757,6791184.0
1870,60868103.819225568
2,8, 1, 8, 0, 8, 0.00,60.00,Sunday
25,44732779.34261477
757,6791184.0
1870,44732779.342614758
2,8, 1, 8, 0, 9, 0.00,60.00,Sunday
25,44564171.37223609
757,6791184.0
1870,44564171.37223608
2,8, 1, 8, 0,10, 0.00,60.00,Sunday
25,44530632.33352685
757,6791184.0
1870,44530632.33352685
2,8, 1, 8, 0,11, 0.00,60.00,Sunday
25,44530631.45924014
757,6791184.0
1870,44530631.45924014
2,8, 1, 8, 0,12, 0.00,60.00,Sunday
25,52263233.25241427
757,6791184.0
1870,52263233.252414267
2,8, 1, 8, 0,13, 0.00,60.00,Sunday
25,55968029.7468684
757,6791184.0
1870,55968029.74686841
2,8, 1, 8, 0,14, 0.00,60.00,Sunday
25,60984860.23525504
757,6791184.0
1870,60984860.23525505
2,8, 1, 8, 0,15, 0.00,60.00,Sunday
25,52240428.46867776
757,6791184.0
1870,52240428.46867776
2,8, 1, 8, 0,16, 0.00,60.00,Sunday
25,45385907.41103002
757,6791184.0
1870,45385907.41103002
2,8, 1, 8, 0,17, 0.00,60.00,Sunday
25,48029377.52642034
757,6791184.0
1870,48029377.52642034
2,8, 1, 8, 0,18, 0.00,60.00,Sunday
25,64041927.83819962
757,6791184.0
1870,64041927.83819963
2,8, 1, 8, 0,19, 0.00,60.00,Sunday
25,56445378.60166331
757,6791184.0
1870,56445378.60166331
2,8, 1, 8, 0,20, 0.00,60.00,Sunday
25,48630519.19145743
757,6791184.0
1870,48630519.19145743
2,8, 1, 8, 0,21, 0.00,60.00,Sunday
25,48630519.19145743
757,6791184.0
1870,48630519.19145743
2,8, 1, 8, 0,22, 0.00,60.00,Sunday
25,48630519.19145743
757,6791184.0
1870,48630519.19145743
2,8, 1, 8, 0,23, 0.00,60.00,Sunday
25,48630519.19145743
757,6791184.0
1870,48630519.19145743
2,8, 1, 8, 0,24, 0.00,60.00,Sunday
25,48630519.19145743
757,6791184.0
1870,48630519.19145743
2,9, 1, 9, 0, 1, 0.00,60.00,Monday
25,57335738.170472148
757,6791184.0
1870,57335738.170472148
2,9, 1, 9, 0, 2, 0.00,60.00,Monday
25,57335738.170472148
757,6791184.0
1870,57335738.170472148
2,9, 1, 9, 0, 3, 0.00,60.00,Monday
25,57335738.170472148
757,6791184.0
1870,57335738.170472148
2,9, 1, 9, 0, 4, 0.00,60.00,Monday
25,57335738.170472148
757,6791184.0
1870,57335738.170472148
2,9, 1, 9, 0, 5, 0.00,60.00,Monday
25,57335738.170472148
757,6791184.0
1870,57335738.170472148
2,9, 1, 9, 0, 6, 0.00,60.00,Monday
25,58162225.08261116
757,6791184.0
1870,58162225.08261116
2,9, 1, 9, 0, 7, 0.00,60.00,Monday
25,107240386.40704465
757,110888536.11753501
1870,107240386.40704468
2,9, 1, 9, 0, 8, 0.00,60.00,Monday
25,174792443.98400248
757,92578907.65928106
1870,174792443.98400248
2,9, 1, 9, 0, 9, 0.00,60.00,Monday
25,268336710.15910948
757,36867850.80989614
1870,268336710.15910945
2,9, 1, 9, 0,10, 0.00,60.00,Monday
25,231292607.87243165
757,8484205.82277577
1870,231292607.87243159
2,9, 1, 9, 0,11, 0.00,60.00,Monday
25,235152883.08119459
757,6791184.0
1870,235152883.0811946
2,9, 1, 9, 0,12, 0.00,60.00,Monday
25,259949205.29018224
757,11371185.544850558
1870,259949205.29018215
2,9, 1, 9, 0,13, 0.00,60.00,Monday
25,263333623.17654098
757,25825339.259154548
1870,263333623.17654098
2,9, 1, 9, 0,14, 0.00,60.00,Monday
25,268783590.0601536
757,25626527.052275573
1870,268783590.06015369
2,9, 1, 9, 0,15, 0.00,60.00,Monday
25,249580029.37964995
757,15531724.810210642
1870,249580029.3796499
2,9, 1, 9, 0,16, 0.00,60.00,Monday
25,241895592.0644415
757,15506104.521254609
1870,241895592.0644415
2,9, 1, 9, 0,17, 0.00,60.00,Monday
25,248860251.91360153
757,20386056.90097745
1870,248860251.9136015
2,9, 1, 9, 0,18, 0.00,60.00,Monday
25,206730202.5579702
757,13449354.718604722
1870,206730202.55797018
2,9, 1, 9, 0,19, 0.00,60.00,Monday
25,114718688.76246917
757,28553218.841580847
1870,114718688.76246917
2,9, 1, 9, 0,20, 0.00,60.00,Monday
25,97528109.73448248
757,24834300.03410884
1870,97528109.73448248
2,9, 1, 9, 0,21, 0.00,60.00,Monday
25,92091314.35202457
757,36395663.32116084
1870,92091314.35202456
2,9, 1, 9, 0,22, 0.00,60.00,Monday
25,89897900.09975375
757,61328948.13424374
1870,89897900.09975374
2,9, 1, 9, 0,23, 0.00,60.00,Monday
25,73301957.30496589
757,6791184.0
1870,73301957.3049659
2,9, 1, 9, 0,24, 0.00,60.00,Monday
25,70207061.25759147
757,6791184.0
1870,70207061.25759147
2,10, 1,10, 0, 1, 0.00,60.00,Tuesday
25,57335709.94418401
757,6791184.0
1870,57335709.94418401
2,10, 1,10, 0, 2, 0.00,60.00,Tuesday
25,57335738.170472148
757,6791184.0
1870,57335738.170472148
2,10, 1,10, 0, 3, 0.00,60.00,Tuesday
25,57335738.170472148
757,6791184.0
1870,57335738.170472148
2,10, 1,10, 0, 4, 0.00,60.00,Tuesday
25,57335738.170472148
757,6791184.0
1870,57335738.170472148
2,10, 1,10, 0, 5, 0.00,60.00,Tuesday
25,57335738.170472148
757,6791184.0
1870,57335738.170472148
2,10, 1,10, 0, 6, 0.00,60.00,Tuesday
25,58162225.08261116
757,6791184.0
1870,58162225.08261116
2,10, 1,10, 0, 7, 0.00,60.00,Tuesday
25,97265307.18935254
757,100858890.34268677
1870,97265307.18935254
2,10, 1,10, 0, 8, 0.00,60.00,Tuesday
25,157135918.10289274
757,80584094.08198749
1870,157135918.10289277
2,10, 1,10, 0, 9, 0.00,60.00,Tuesday
25,266509824.90499107
757,26877646.19989716
1870,266509824.90499104
2,10, 1,10, 0,10, 0.00,60.00,Tuesday
25,235841437.0462329
757,6791184.0
1870,235841437.04623286
2,10, 1,10, 0,11, 0.00,60.00,Tuesday
25,241344870.9099849
757,6791184.0
1870,241344870.9099849
2,10, 1,10, 0,12, 0.00,60.00,Tuesday
25,254795577.81896637
757,15957021.643660427
1870,254795577.81896634
2,10, 1,10, 0,13, 0.00,60.00,Tuesday
25,260099455.15780304
757,25824422.09695563
1870,260099455.157803
2,10, 1,10, 0,14, 0.00,60.00,Tuesday
25,268288538.5397842
757,25626369.11460652
1870,268288538.53978423
2,10, 1,10, 0,15, 0.00,60.00,Tuesday
25,250398913.8567115
757,15552168.87423465
1870,250398913.8567115
2,10, 1,10, 0,16, 0.00,60.00,Tuesday
25,239177033.88910244
757,15519732.434461013
1870,239177033.88910235
2,10, 1,10, 0,17, 0.00,60.00,Tuesday
25,248014602.15360279
757,20381739.988818416
1870,248014602.15360276
2,10, 1,10, 0,18, 0.00,60.00,Tuesday
25,206148243.51890738
757,12925901.418809984
1870,206148243.51890735
2,10, 1,10, 0,19, 0.00,60.00,Tuesday
25,114812331.19878637
757,19460431.11793124
1870,114812331.19878635
2,10, 1,10, 0,20, 0.00,60.00,Tuesday
25,97528109.73448248
757,33571127.7941522
1870,97528109.73448248
2,10, 1,10, 0,21, 0.00,60.00,Tuesday
25,91402496.09241426
757,59254895.7354451
1870,91402496.09241426
2,10, 1,10, 0,22, 0.00,60.00,Tuesday
25,87557301.9112422
757,69846767.69408164
1870,87557301.9112422
2,10, 1,10, 0,23, 0.00,60.00,Tuesday
25,73301957.30496589
757,6791184.0
1870,73301957.3049659
2,10, 1,10, 0,24, 0.00,60.00,Tuesday
25,70207061.25759147
757,6791184.0
1870,70207061.25759147
2,11, 1,11, 0, 1, 0.00,60.00,Wednesday
25,57335709.94418401
757,6791184.0
1870,57335709.94418401
2,11, 1,11, 0, 2, 0.00,60.00,Wednesday
25,57335738.170472148
757,6791184.0
1870,57335738.170472148
2,11, 1,11, 0, 3, 0.00,60.00,Wednesday
25,57335738.170472148
757,6791184.0
1870,57335738.170472148
2,11, 1,11, 0, 4, 0.00,60.00,Wednesday
25,57335738.170472148
757,6791184.0
1870,57335738.170472148
2,11, 1,11, 0, 5, 0.00,60.00,Wednesday
25,57335738.170472148
757,6791184.0
1870,57335738.170472148
2,11, 1,11, 0, 6, 0.00,60.00,Wednesday
25,58162225.08261116
757,6791184.0
1870,58162225.08261116
2,11, 1,11, 0, 7, 0.00,60.00,Wednesday
25,89459237.6464564
757,89917415.41537109
1870,89459237.64645642
2,11, 1,11, 0, 8, 0.00,60.00,Wednesday
25,148491907.89026926
757,75615862.27202302
1870,148491907.89026926
2,11, 1,11, 0, 9, 0.00,60.00,Wednesday
25,266274917.0133459
757,34633826.662504468
1870,266274917.01334585
2,11, 1,11, 0,10, 0.00,60.00,Wednesday
25,232582578.40157349
757,8228543.854320486
1870,232582578.4015734
2,11, 1,11, 0,11, 0.00,60.00,Wednesday
25,228904008.55988968
757,6791184.0
1870,228904008.55988968
2,11, 1,11, 0,12, 0.00,60.00,Wednesday
25,253370560.21447844
757,15962064.40803886
1870,253370560.21447838
2,11, 1,11, 0,13, 0.00,60.00,Wednesday
25,257903169.8314799
757,25841856.853650404
1870,257903169.8314799
2,11, 1,11, 0,14, 0.00,60.00,Wednesday
25,262487235.21601088
757,25629976.720638157
1870,262487235.2160109
2,11, 1,11, 0,15, 0.00,60.00,Wednesday
25,244616185.73410899
757,15546773.664321209
1870,244616185.73410896
2,11, 1,11, 0,16, 0.00,60.00,Wednesday
25,234907937.21271853
757,15515558.131448832
1870,234907937.2127185
2,11, 1,11, 0,17, 0.00,60.00,Wednesday
25,247755206.25095964
757,20379516.667663818
1870,247755206.25095959
2,11, 1,11, 0,18, 0.00,60.00,Wednesday
25,209521778.89368139
757,19697291.521084105
1870,209521778.89368136
2,11, 1,11, 0,19, 0.00,60.00,Wednesday
25,115289918.03887068
757,31747909.80314742
1870,115289918.03887068
2,11, 1,11, 0,20, 0.00,60.00,Wednesday
25,97528109.73448248
757,31792548.79718364
1870,97528109.73448248
2,11, 1,11, 0,21, 0.00,60.00,Wednesday
25,91339209.2203237
757,37245101.73241056
1870,91339209.2203237
2,11, 1,11, 0,22, 0.00,60.00,Wednesday
25,86913028.99137409
757,48146593.38181515
1870,86913028.9913741
2,11, 1,11, 0,23, 0.00,60.00,Wednesday
25,73301957.30496589
757,6791184.0
1870,73301957.3049659
2,11, 1,11, 0,24, 0.00,60.00,Wednesday
25,70207061.25759147
757,6791184.0
1870,70207061.25759147
2,12, 1,12, 0, 1, 0.00,60.00,Thursday
25,57335709.94418401
757,6791184.0
1870,57335709.94418401
2,12, 1,12, 0, 2, 0.00,60.00,Thursday
25,57335738.170472148
757,6791184.0
1870,57335738.170472148
2,12, 1,12, 0, 3, 0.00,60.00,Thursday
25,57335738.170472148
757,6791184.0
1870,57335738.170472148
2,12, 1,12, 0, 4, 0.00,60.00,Thursday
25,57335738.170472148
757,6791184.0
1870,57335738.170472148
2,12, 1,12, 0, 5, 0.00,60.00,Thursday
25,57335738.170472148
757,6791184.0
1870,57335738.170472148
2,12, 1,12, 0, 6, 0.00,60.00,Thursday
25,58162225.08261116
757,6791184.0
1870,58162225.08261116
2,12, 1,12, 0, 7, 0.00,60.00,Thursday
25,84718733.19289577
757,66790654.73159237
1870,84718733.19289577
2,12, 1,12, 0, 8, 0.00,60.00,Thursday
25,141161288.13732548
757,66396343.297152567
1870,141161288.13732548
2,12, 1,12, 0, 9, 0.00,60.00,Thursday
25,265835711.0526108
757,47646980.30569034
1870,265835711.05261079
2,12, 1,12, 0,10, 0.00,60.00,Thursday
25,233249089.5574547
757,19096881.480499254
1870,233249089.55745466
2,12, 1,12, 0,11, 0.00,60.00,Thursday
25,226609519.21098946
757,6791184.0
1870,226609519.21098946
2,12, 1,12, 0,12, 0.00,60.00,Thursday
25,248288333.66156549
757,12061634.758979695
1870,248288333.66156546
2,12, 1,12, 0,13, 0.00,60.00,Thursday
25,264462809.842705
757,25892166.19914816
1870,264462809.842705
2,12, 1,12, 0,14, 0.00,60.00,Thursday
25,271678557.6540494
757,24847529.18347223
1870,271678557.6540494
2,12, 1,12, 0,15, 0.00,60.00,Thursday
25,254156989.4052405
757,15534239.49802664
1870,254156989.40524055
2,12, 1,12, 0,16, 0.00,60.00,Thursday
25,255016858.32004059
757,15512315.086829037
1870,255016858.3200406
2,12, 1,12, 0,17, 0.00,60.00,Thursday
25,256724031.99909113
757,20371376.216822458
1870,256724031.99909107
2,12, 1,12, 0,18, 0.00,60.00,Thursday
25,205198115.92123807
757,15308842.11344382
1870,205198115.92123807
2,12, 1,12, 0,19, 0.00,60.00,Thursday
25,114903465.54382822
757,6791184.0
1870,114903465.54382824