Program Version,EnergyPlus, Version 9.0.1-bb7ca4f0da, YMD=2022.04.26 19:50
1,5,Environment Title[],Latitude[deg],Longitude[deg],Time Zone[],Elevation[m]
2,8,Day of Simulation[],Month[],Day of Month[],DST Indicator[1=yes 0=no],Hour[],StartMinute[],EndMinute[],DayType
3,5,Cumulative Day of Simulation[],Month[],Day of Month[],DST Indicator[1=yes 0=no],DayType  ! When Daily Report Variables Requested
4,2,Cumulative Days of Simulation[],Month[]  ! When Monthly Report Variables Requested
5,1,Cumulative Days of Simulation[] ! When Run Period Report Variables Requested
6,1,Calendar Year of Simulation[] ! When Annual Report Variables Requested
7,1,Environment,Site Outdoor Air Drybulb Temperature [C] !Hourly
2176,1,PACU_VAV_BOT,Air System Total Heating Energy [J] !Hourly
2177,1,PACU_VAV_BOT,Air System Total Cooling Energy [J] !Hourly
2178,1,PACU_VAV_MID,Air System Total Heating Energy [J] !Hourly
2179,1,PACU_VAV_MID,Air System Total Cooling Energy [J] !Hourly
2180,1,PACU_VAV_TOP,Air System Total Heating Energy [J] !Hourly
2181,1,PACU_VAV_TOP,Air System Total Cooling Energy [J] !Hourly
End of Data Dictionary
1,RUNPERIOD 1,  32.58,-116.98,  -8.00, 159.00
2,1, 1, 1, 0, 1, 0.00,60.00,Holiday
7,8.416666666666666
2176,0.0
2177,0.0
2178,0.0
2179,0.0
2180,0.0
2181,0.0
2,1, 1, 1, 0, 2, 0.00,60.00,Holiday
7,8.0
2176,0.0
2177,0.0
2178,0.0
2179,0.0
2180,0.0
2181,0.0
2,1, 1, 1, 0, 3, 0.00,60.00,Holiday
7,8.583333333333334
2176,0.0
2177,0.0
2178,0.0
2179,0.0
2180,0.0
2181,0.0
2,1, 1, 1, 0, 4, 0.00,60.00,Holiday
7,9.0
2176,0.0
2177,0.0
2178,0.0
2179,0.0
2180,0.0
2181,0.0
2,1, 1, 1, 0, 5, 0.00,60.00,Holiday
7,9.0
2176,0.0
2177,0.0
2178,0.0
2179,0.0
2180,0.0
2181,0.0
2,1, 1, 1, 0, 6, 0.00,60.00,Holiday
7,8.416666666666666
2176,0.0
2177,0.0
2178,0.0
2179,0.0
2180,0.0
2181,0.0
2,1, 1, 1, 0, 7, 0.00,60.00,Holiday
7,8.583333333333334
2176,0.0
2177,0.0
2178,0.0
2179,0.0
2180,0.0
2181,0.0
2,1, 1, 1, 0, 8, 0.00,60.00,Holiday
7,9.583333333333334
2176,0.0
2177,0.0
2178,0.0
2179,0.0
2180,0.0
2181,0.0
2,1, 1, 1, 0, 9, 0.00,60.00,Holiday
7,11.166666666666666
2176,0.0
2177,0.0
2178,0.0
2179,0.0
2180,0.0
2181,0.0
2,1, 1, 1, 0,10, 0.00,60.00,Holiday
7,12.583333333333334
2176,0.0
2177,0.0
2178,0.0
2179,0.0
2180,0.0
2181,0.0
2,1, 1, 1, 0,11, 0.00,60.00,Holiday
7,13.0
2176,0.0
2177,0.0
2178,0.0
2179,0.0
2180,0.0
2181,0.0
2,1, 1, 1, 0,12, 0.00,60.00,Holiday
7,13.0
2176,0.0
2177,0.0
2178,0.0
2179,0.0
2180,0.0
2181,0.0
2,1, 1, 1, 0,13, 0.00,60.00,Holiday
7,13.0
2176,0.0
2177,0.0
2178,0.0
2179,0.0
2180,0.0
2181,0.0
2,1, 1, 1, 0,14, 0.00,60.00,Holiday
7,13.0
2176,0.0
2177,0.0
2178,0.0
2179,0.0
2180,0.0
2181,0.0
2,1, 1, 1, 0,15, 0.00,60.00,Holiday
7,13.0
2176,0.0
2177,0.0
2178,0.0
2179,0.0
2180,0.0
2181,0.0
2,1, 1, 1, 0,16, 0.00,60.00,Holiday
7,13.0
2176,0.0
2177,0.0
2178,0.0
2179,0.0
2180,0.0
2181,0.0
2,1, 1, 1, 0,17, 0.00,60.00,Holiday
7,11.833333333333334
2176,0.0
2177,0.0
2178,0.0
2179,0.0
2180,0.0
2181,0.0
2,1, 1, 1, 0,18, 0.00,60.00,Holiday
7,11.0
2176,0.0
2177,0.0
2178,0.0
2179,0.0
2180,0.0
2181,0.0
2,1, 1, 1, 0,19, 0.00,60.00,Holiday
7,11.0
2176,0.0
2177,0.0
2178,0.0
2179,0.0
2180,0.0
2181,0.0
2,1, 1, 1, 0,20, 0.00,60.00,Holiday
7,11.0
2176,0.0
2177,0.0
2178,0.0
2179,0.0
2180,0.0
2181,0.0
2,1, 1, 1, 0,21, 0.00,60.00,Holiday
7,11.0
2176,0.0
2177,0.0
2178,0.0
2179,0.0
2180,0.0
2181,0.0
2,1, 1, 1, 0,22, 0.00,60.00,Holiday
7,11.0
2176,0.0
2177,0.0
2178,0.0
2179,0.0
2180,0.0
2181,0.0
2,1, 1, 1, 0,23, 0.00,60.00,Holiday
7,10.416666666666666
2176,0.0
2177,0.0
2178,0.0
2179,0.0
2180,0.0
2181,0.0
2,1, 1, 1, 0,24, 0.00,60.00,Holiday
7,9.416666666666666
2176,0.0
2177,0.0
2178,0.0
2179,0.0
2180,0.0
2181,0.0
2,2, 1, 2, 0, 1, 0.00,60.00,Monday
7,9.583333333333334
2176,0.0
2177,0.0
2178,0.0
2179,0.0
2180,0.0
2181,0.0
2,2, 1, 2, 0, 2, 0.00,60.00,Monday
7,9.416666666666666
2176,0.0
2177,0.0
2178,0.0
2179,0.0
2180,0.0
2181,0.0
2,2, 1, 2, 0, 3, 0.00,60.00,Monday
7,10.166666666666666
2176,0.0
2177,0.0
2178,0.0
2179,0.0
2180,0.0
2181,0.0
2,2, 1, 2, 0, 4, 0.00,60.00,Monday
7,10.416666666666666
2176,0.0
2177,0.0
2178,0.0
2179,0.0
2180,0.0
2181,0.0
2,2, 1, 2, 0, 5, 0.00,60.00,Monday
7,10.583333333333334
2176,0.0
2177,0.0
2178,0.0
2179,0.0
2180,0.0
2181,0.0
2,2, 1, 2, 0, 6, 0.00,60.00,Monday
7,11.0
2176,0.0
2177,0.0
2178,0.0
2179,0.0
2180,0.0
2181,0.0
2,2, 1, 2, 0, 7, 0.00,60.00,Monday
7,11.0
2176,3061517.423146924
2177,0.0
2178,4883015.5062560089
2179,0.0
2180,21163509.2528894
2181,0.0
2,2, 1, 2, 0, 8, 0.00,60.00,Monday
7,11.0
2176,20067380.253724278
2177,0.0
2178,12816718.263225049
2179,0.0
2180,44439660.774889308
2181,0.0
2,2, 1, 2, 0, 9, 0.00,60.00,Monday
7,12.166666666666666
2176,6576889.512505211
2177,0.0
2178,2592127.645868405
2179,0.0
2180,6706445.823704036
2181,0.0
2,2, 1, 2, 0,10, 0.00,60.00,Monday
7,13.0
2176,4044451.2851084007
2177,0.0
2178,2443038.4578941084
2179,0.0
2180,2468807.9144792559
2181,0.0
2,2, 1, 2, 0,11, 0.00,60.00,Monday
7,14.166666666666666
2176,3854970.8342089385
2177,3404304.4975524658
2178,2655227.578860899
2179,2445000.014935608
2180,2599468.450537658
2181,2438259.812483719
2,2, 1, 2, 0,12, 0.00,60.00,Monday
7,14.416666666666666
2176,4480208.749030535
2177,4463545.331165167
2178,3296293.1945572618
2179,3274508.0999495179
2180,2969921.0723242347
2181,3060485.453045127
2,2, 1, 2, 0,13, 0.00,60.00,Monday
7,14.0
2176,4648883.217270395
2177,0.0
2178,3166682.947626299
2179,0.0
2180,3127106.0015953828
2181,0.0
2,2, 1, 2, 0,14, 0.00,60.00,Monday
7,14.0
2176,5097287.262544456
2177,0.0
2178,3488138.525238358
2179,0.0
2180,3224543.5251395876
2181,0.0
2,2, 1, 2, 0,15, 0.00,60.00,Monday
7,13.416666666666666
2176,4804455.793971083
2177,0.0
2178,3266448.273738346
2179,0.0
2180,3206635.346959332
2181,0.0
2,2, 1, 2, 0,16, 0.00,60.00,Monday
7,13.0
2176,4887003.419827636
2177,0.0
2178,3327047.0995575247
2179,0.0
2180,3044382.2605450928
2181,0.0
2,2, 1, 2, 0,17, 0.00,60.00,Monday
7,11.833333333333334
2176,5523199.654631035
2177,0.0
2178,2729076.37224234
2179,0.0
2180,2589254.493700999
2181,0.0
2,2, 1, 2, 0,18, 0.00,60.00,Monday
7,9.833333333333334
2176,17599768.88155198
2177,0.0
2178,7280482.400127301
2179,0.0
2180,7367622.4247147119
2181,0.0
2,2, 1, 2, 0,19, 0.00,60.00,Monday
7,9.0
2176,9238718.183378835
2177,744702.7290115486
2178,10408007.322267309
2179,0.0
2180,11712325.007426167
2181,0.0
2,2, 1, 2, 0,20, 0.00,60.00,Monday
7,7.833333333333333
2176,13253014.502749375
2177,0.0
2178,14316259.061602746
2179,0.0
2180,18649487.895242268
2181,0.0
2,2, 1, 2, 0,21, 0.00,60.00,Monday
7,6.416666666666667
2176,17906592.641349656
2177,0.0
2178,18996337.27324239
2179,0.0
2180,27113480.830275917
2181,0.0
2,2, 1, 2, 0,22, 0.00,60.00,Monday
7,6.583333333333333
2176,17937683.999370774
2177,0.0
2178,18950736.686495808
2179,0.0
2180,29272644.60886696
2181,0.0
2,2, 1, 2, 0,23, 0.00,60.00,Monday
7,6.416666666666667
2176,0.0
2177,0.0
2178,0.0
2179,0.0
2180,0.0
2181,0.0
2,2, 1, 2, 0,24, 0.00,60.00,Monday
7,6.583333333333333
2176,0.0
2177,0.0
2178,0.0
2179,0.0
2180,0.0
2181,0.0
2,3, 1, 3, 0, 1, 0.00,60.00,Tuesday
7,6.416666666666667
2176,0.0
2177,0.0
2178,0.0
2179,0.0
2180,0.0
2181,0.0
2,3, 1, 3, 0, 2, 0.00,60.00,Tuesday
7,4.25
2176,0.0
2177,0.0
2178,0.0
2179,0.0
2180,0.0
2181,0.0
2,3, 1, 3, 0, 3, 0.00,60.00,Tuesday
7,4.166666666666667
2176,0.0
2177,0.0
2178,0.0
2179,0.0
2180,0.0
2181,0.0
2,3, 1, 3, 0, 4, 0.00,60.00,Tuesday
7,4.416666666666667
2176,0.0
2177,0.0
2178,0.0
2179,0.0
2180,0.0
2181,0.0
2,3, 1, 3, 0, 5, 0.00,60.00,Tuesday
7,3.4166666666666667
2176,0.0
2177,0.0
2178,0.0
2179,0.0
2180,0.0
2181,0.0
2,3, 1, 3, 0, 6, 0.00,60.00,Tuesday
7,4.166666666666667
2176,0.0
2177,0.0
2178,0.0
2179,0.0
2180,0.0
2181,0.0
2,3, 1, 3, 0, 7, 0.00,60.00,Tuesday
7,3.8333333333333337
2176,18889153.106076927
2177,0.0
2178,28020865.320861099
2179,0.0
2180,48730327.745958928
2181,0.0
2,3, 1, 3, 0, 8, 0.00,60.00,Tuesday
7,5.333333333333333
2176,37794345.95562423
2177,0.0
2178,29555502.030681854
2179,0.0
2180,55302838.99980351
2181,0.0
2,3, 1, 3, 0, 9, 0.00,60.00,Tuesday
7,9.333333333333334
2176,8049740.686615329
2177,0.0
2178,9940423.264294155
2179,0.0
2180,16353958.755889412
2181,0.0
2,3, 1, 3, 0,10, 0.00,60.00,Tuesday
7,12.166666666666666
2176,4868115.256548192
2177,0.0
2178,2942323.0352066655
2179,0.0
2180,3116200.486841367
2181,0.0
2,3, 1, 3, 0,11, 0.00,60.00,Tuesday
7,14.166666666666666
2176,4683670.702776847
2177,3522885.5455823319
2178,3059333.5546173139
2179,2387642.009289872
2180,2882110.6667808389
2181,2351794.8294031305
2,3, 1, 3, 0,12, 0.00,60.00,Tuesday
7,16.75
2176,5184353.660139012
2177,31045101.777381287
2178,3601521.385208785
2179,21839899.940867157
2180,3207220.9931529958
2181,20437114.14199041
2,3, 1, 3, 0,13, 0.00,60.00,Tuesday
7,18.583333333333333
2176,4717495.554061059
2177,48499996.65401259
2178,3354451.6825362697
2179,34652567.38662015
2180,3330803.8839118166
2181,34914785.50150321
2,3, 1, 3, 0,14, 0.00,60.00,Tuesday
7,17.833333333333333
2176,5993853.188000764
2177,47476085.26634161
2178,3769900.7728938867
2179,31467916.334686225
2180,3497235.4954677608
2181,30405685.62865507
2,3, 1, 3, 0,15, 0.00,60.00,Tuesday
7,17.583333333333333
2176,5509098.009885506
2177,42231895.35612509
2178,3627926.355674383
2179,28673847.135638585
2180,3569792.3946721537
2181,28787152.722014548
2,3, 1, 3, 0,16, 0.00,60.00,Tuesday
7,17.416666666666669
2176,5580130.309903468
2177,40544873.98868782
2178,3722901.2858740587
2179,27889300.919401524
2180,3403350.093685327
2181,26561227.23598204
2,3, 1, 3, 0,17, 0.00,60.00,Tuesday
7,14.666666666666666
2176,6151497.311811396
2177,11368238.603511572
2178,3116486.566638883
2179,6720969.858864868
2180,2816719.7905005777
2181,6543375.243822648
2,3, 1, 3, 0,18, 0.00,60.00,Tuesday
7,13.0
2176,8115482.621577048
2177,0.0
2178,2420372.7772583027
2179,0.0
2180,2424852.4087410767
2181,0.0
2,3, 1, 3, 0,19, 0.00,60.00,Tuesday
7,11.833333333333334
2176,2954384.065976549
2177,0.0
2178,2420372.7772582957
2179,0.0
2180,2651580.4800530907
2181,0.0
2,3, 1, 3, 0,20, 0.00,60.00,Tuesday
7,11.583333333333334
2176,2954384.0659765515
2177,0.0
2178,2420372.7772583009
2179,0.0
2180,2562539.5689337339
2181,0.0
2,3, 1, 3, 0,21, 0.00,60.00,Tuesday
7,10.833333333333334
2176,3783444.039929305
2177,0.0
2178,4027838.007916037
2179,0.0
2180,5804463.246566972
2181,0.0
2,3, 1, 3, 0,22, 0.00,60.00,Tuesday
7,8.833333333333334
2176,9922643.60135881
2177,0.0
2178,10846020.170056617
2179,0.0
2180,14661843.720848926
2181,0.0
2,3, 1, 3, 0,23, 0.00,60.00,Tuesday
7,9.75
2176,0.0
2177,0.0
2178,0.0
2179,0.0
2180,0.0
2181,0.0
2,3, 1, 3, 0,24, 0.00,60.00,Tuesday
7,9.25
2176,0.0
2177,0.0
2178,0.0
2179,0.0
2180,0.0
2181,0.0
2,4, 1, 4, 0, 1, 0.00,60.00,Wednesday
7,8.0
2176,0.0
2177,0.0
2178,0.0
2179,0.0
2180,0.0
2181,0.0
2,4, 1, 4, 0, 2, 0.00,60.00,Wednesday
7,8.583333333333334
2176,0.0
2177,0.0
2178,0.0
2179,0.0
2180,0.0
2181,0.0
2,4, 1, 4, 0, 3, 0.00,60.00,Wednesday
7,10.166666666666666
2176,0.0
2177,0.0
2178,0.0
2179,0.0
2180,0.0
2181,0.0
2,4, 1, 4, 0, 4, 0.00,60.00,Wednesday
7,9.25
2176,0.0
2177,0.0
2178,0.0
2179,0.0
2180,0.0
2181,0.0
2,4, 1, 4, 0, 5, 0.00,60.00,Wednesday
7,6.25
2176,0.0
2177,0.0
2178,0.0
2179,0.0
2180,0.0
2181,0.0
2,4, 1, 4, 0, 6, 0.00,60.00,Wednesday
7,6.166666666666667
2176,0.0
2177,0.0
2178,0.0
2179,0.0
2180,0.0
2181,0.0
2,4, 1, 4, 0, 7, 0.00,60.00,Wednesday
7,7.583333333333333
2176,14202041.202446718
2177,0.0
2178,15310547.5352606
2179,0.0
2180,22164020.324495015
2181,0.0
2,4, 1, 4, 0, 8, 0.00,60.00,Wednesday
7,10.333333333333334
2176,18444908.93629648
2177,441039.9699023582
2178,6589991.390723061
2179,0.0
2180,19905694.627596685
2181,0.0
2,4, 1, 4, 0, 9, 0.00,60.00,Wednesday
7,13.166666666666666
2176,7329807.988073334
2177,0.0
2178,2754244.254286712
2179,0.0
2180,2439747.696406486
2181,0.0
2,4, 1, 4, 0,10, 0.00,60.00,Wednesday
7,15.75
2176,5522216.815876901
2177,20769063.987959684
2178,3367578.712177685
2179,13251681.346739952
2180,2767772.0995081325
2181,11369758.77765182
2,4, 1, 4, 0,11, 0.00,60.00,Wednesday
7,17.583333333333333
2176,5423560.635200589
2177,41630245.60411016
2178,3431208.6648409345
2179,27463356.94475311
2180,3131080.8598056838
2181,25904793.59201953
2,4, 1, 4, 0,12, 0.00,60.00,Wednesday
7,18.583333333333333
2176,6084443.35312646
2177,57284924.528284
2178,3779995.6234489337
2179,37613262.80228621
2180,3488230.580522158
2181,36114278.6406987
2,4, 1, 4, 0,13, 0.00,60.00,Wednesday
7,19.0
2176,5424643.099153106
2177,58158047.60549526
2178,3514813.309994447
2179,39094999.30072575
2180,3580350.9113857115
2181,40199312.821057599
2,4, 1, 4, 0,14, 0.00,60.00,Wednesday
7,19.583333333333333
2176,6913395.266068322
2177,75275573.4036843
2178,3909835.2466705476
2179,46960539.81464867
2180,3733605.6564926404
2181,46295650.015020977
2,4, 1, 4, 0,15, 0.00,60.00,Wednesday
7,19.416666666666669
2176,6440792.883192452
2177,70090744.78360129
2178,4253540.365163932
2179,47977570.38728556
2180,3908138.6989774128
2181,46348623.66440086
2,4, 1, 4, 0,16, 0.00,60.00,Wednesday
7,18.416666666666669
2176,6590138.962604522
2177,58073932.74140781
2178,4579383.3558928309
2179,41179471.72366814
2180,3734875.4815645825
2181,36683614.92781685
2,4, 1, 4, 0,17, 0.00,60.00,Wednesday
7,16.833333333333333
2176,7004190.050340692
2177,38941245.164296399
2178,3867261.4550044529
2179,23996076.443250024
2180,3196444.5502450119
2181,21620505.629800425
2,4, 1, 4, 0,18, 0.00,60.00,Wednesday
7,15.416666666666666
2176,5768365.600991381
2177,17392349.68465193
2178,2462364.386882184
2179,9221581.665883398
2180,2432918.9764847548
2181,9244468.205413174
2,4, 1, 4, 0,19, 0.00,60.00,Wednesday
7,14.416666666666666
2176,3002402.755337587
2177,3200084.875198401
2178,2420372.7772583018
2179,2499526.930333616
2180,2424852.4087410715
2181,2538566.622368385
2,4, 1, 4, 0,20, 0.00,60.00,Wednesday
7,11.666666666666666
2176,3166419.9051281486
2177,0.0
2178,3165572.9610477464
2179,0.0
2180,3764243.2489205047
2181,0.0
2,4, 1, 4, 0,21, 0.00,60.00,Wednesday
7,10.583333333333334
2176,3084686.253966473
2177,0.0
2178,3711405.0553091659
2179,0.0
2180,5828969.574835817
2181,0.0
2,4, 1, 4, 0,22, 0.00,60.00,Wednesday
7,10.416666666666666
2176,3888453.7930438739
2177,0.0
2178,4447042.7110569779
2179,0.0
2180,7116057.0284077669
2181,0.0
2,4, 1, 4, 0,23, 0.00,60.00,Wednesday
7,11.166666666666666
2176,0.0
2177,0.0
2178,0.0
2179,0.0
2180,0.0
2181,0.0
2,4, 1, 4, 0,24, 0.00,60.00,Wednesday
7,9.666666666666666
2176,0.0
2177,0.0
2178,0.0
2179,0.0
2180,0.0
2181,0.0
2,5, 1, 5, 0, 1, 0.00,60.00,Thursday
7,8.583333333333334
2176,0.0
2177,0.0
2178,0.0
2179,0.0
2180,0.0
2181,0.0
2,5, 1, 5, 0, 2, 0.00,60.00,Thursday
7,7.833333333333333
2176,0.0
2177,0.0
2178,0.0
2179,0.0
2180,0.0
2181,0.0
2,5, 1, 5, 0, 3, 0.00,60.00,Thursday
7,6.416666666666667
2176,0.0
2177,0.0
2178,0.0
2179,0.0
2180,0.0
2181,0.0
2,5, 1, 5, 0, 4, 0.00,60.00,Thursday
7,6.583333333333333
2176,0.0
2177,0.0
2178,0.0
2179,0.0
2180,0.0
2181,0.0
2,5, 1, 5, 0, 5, 0.00,60.00,Thursday
7,7.0
2176,0.0
2177,0.0
2178,0.0
2179,0.0
2180,0.0
2181,0.0
2,5, 1, 5, 0, 6, 0.00,60.00,Thursday
7,7.583333333333333
2176,0.0
2177,0.0
2178,0.0
2179,0.0
2180,0.0
2181,0.0
2,5, 1, 5, 0, 7, 0.00,60.00,Thursday
7,6.25
2176,16899277.670517774
2177,0.0
2178,18541182.584144746
2179,0.0
2180,23228503.984366444
2181,0.0
2,5, 1, 5, 0, 8, 0.00,60.00,Thursday
7,7.333333333333333
2176,23622736.269290639
2177,0.0
2178,15393144.97044453
2179,0.0
2180,28098205.523521179
2181,0.0
2,5, 1, 5, 0, 9, 0.00,60.00,Thursday
7,11.333333333333334
2176,9233355.920572523
2177,0.0
2178,4148680.6654196197
2179,0.0
2180,5942579.581010377
2181,0.0
2,5, 1, 5, 0,10, 0.00,60.00,Thursday
7,14.75
2176,6382357.9024646659
2177,10979360.963542868
2178,3694599.437282474
2179,6865649.677866854
2180,2838085.1465066384
2181,5578269.463277596
2,5, 1, 5, 0,11, 0.00,60.00,Thursday
7,16.583333333333333
2176,6232976.08472833
2177,32954147.905061366
2178,3831986.708463546
2179,21424653.89149127
2180,3214989.885620308
2181,19046821.05733205
2,5, 1, 5, 0,12, 0.00,60.00,Thursday
7,17.525000000000003
2176,6950385.492137805
2177,48001869.39461066
2178,4202706.315932916
2179,31131070.101984987
2180,3603432.067095786
2181,28492018.87975407
2,5, 1, 5, 0,13, 0.00,60.00,Thursday
7,17.958333333333333
2176,5891952.057943305
2177,48710651.18454519
2178,3537224.049562686
2179,31761445.374182118
2180,3705476.7871163368
2181,33481482.875924864
2,5, 1, 5, 0,14, 0.00,60.00,Thursday
7,17.416666666666669
2176,8090375.254994182
2177,51236905.72867517
2178,4671059.606342301
2179,32894699.20262917
2180,3867381.4234570094
2181,31355202.256328167
2,5, 1, 5, 0,15, 0.00,60.00,Thursday
7,16.591666666666666
2176,7600365.399047703
2177,41245547.63280302
2178,5087882.153716533
2179,28372371.248807778
2180,4361434.742116318
2181,27399033.210181118
2,5, 1, 5, 0,16, 0.00,60.00,Thursday
7,15.483333333333335
2176,7815927.9318745569
2177,27777840.14717597
2178,5698152.326285957
2179,20023291.238721596
2180,4406831.268365753
2181,17897439.466140436
2,5, 1, 5, 0,17, 0.00,60.00,Thursday
7,13.791666666666666
2176,8472732.885719847
2177,3619161.673331752
2178,4825667.081481496
2179,2238364.4809151038
2180,3784138.7383229669
2181,1801631.8451673333
2,5, 1, 5, 0,18, 0.00,60.00,Thursday
7,12.416666666666666
2176,8239861.549091514
2177,0.0
2178,2495937.3147285117
2179,0.0
2180,2439589.03676447
2181,0.0
2,5, 1, 5, 0,19, 0.00,60.00,Thursday
7,11.416666666666666
2176,3313503.1835497666
2177,0.0
2178,2420372.777258285
2179,0.0
2180,2424852.408741091
2181,0.0
2,5, 1, 5, 0,20, 0.00,60.00,Thursday
7,10.416666666666666
2176,2957129.2085419346
2177,0.0
2178,3760625.8809296425
2179,0.0
2180,5665986.309029466
2181,0.0
2,5, 1, 5, 0,21, 0.00,60.00,Thursday
7,9.416666666666666
2176,5445910.623022091
2177,0.0
2178,7514528.058504473
2179,0.0
2180,10006951.978058236
2181,0.0
2,5, 1, 5, 0,22, 0.00,60.00,Thursday
7,10.166666666666666
2176,4336256.923556832
2177,0.0
2178,5083522.031102386
2179,0.0
2180,7814325.472788914
2181,0.0
2,5, 1, 5, 0,23, 0.00,60.00,Thursday
7,9.833333333333334
2176,0.0
2177,0.0
2178,0.0
2179,0.0
2180,0.0
2181,0.0
2,5, 1, 5, 0,24, 0.00,60.00,Thursday
7,7.25
2176,0.0
2177,0.0
2178,0.0
2179,0.0
2180,0.0
2181,0.0
2,6, 1, 6, 0, 1, 0.00,60.00,Friday
7,6.583333333333333
2176,0.0
2177,0.0
2178,0.0
2179,0.0
2180,0.0
2181,0.0
2,6, 1, 6, 0, 2, 0.00,60.00,Friday
7,7.583333333333333
2176,0.0
2177,0.0
2178,0.0
2179,0.0
2180,0.0
2181,0.0
2,6, 1, 6, 0, 3, 0.00,60.00,Friday
7,8.0
2176,0.0
2177,0.0
2178,0.0
2179,0.0
2180,0.0
2181,0.0
2,6, 1, 6, 0, 4, 0.00,60.00,Friday
7,10.333333333333334
2176,0.0
2177,0.0
2178,0.0
2179,0.0
2180,0.0
2181,0.0
2,6, 1, 6, 0, 5, 0.00,60.00,Friday
7,9.666666666666666
2176,0.0
2177,0.0
2178,0.0
2179,0.0
2180,0.0
2181,0.0
2,6, 1, 6, 0, 6, 0.00,60.00,Friday
7,8.583333333333334
2176,0.0
2177,0.0
2178,0.0
2179,0.0
2180,0.0
2181,0.0
2,6, 1, 6, 0, 7, 0.00,60.00,Friday
7,9.0
2176,8498945.612236632
2177,0.0
2178,9566156.002642388
2179,0.0
2180,14180762.572828725
2181,0.0
2,6, 1, 6, 0, 8, 0.00,60.00,Friday
7,9.0
2176,17310160.52305977
2177,0.0
2178,9922236.12728624
2179,0.0
2180,18773317.38761884
2181,0.0
2,6, 1, 6, 0, 9, 0.00,60.00,Friday
7,11.333333333333334
2176,9843336.470212214
2177,0.0
2178,4245331.98684354
2179,0.0
2180,5725682.567434456
2181,0.0
2,6, 1, 6, 0,10, 0.00,60.00,Friday
7,15.333333333333334
2176,6703954.602645097
2177,18675439.980566645
2178,3957777.1784769354
2179,11897009.156527492
2180,2849117.2509248198
2181,9346349.956275899
2,6, 1, 6, 0,11, 0.00,60.00,Friday
7,17.583333333333333
2176,6519506.416623494
2177,46711778.13842706
2178,4095511.48681589
2179,30976399.472925776
2180,3275913.1725845879
2181,26822144.141880529
2,6, 1, 6, 0,12, 0.00,60.00,Friday
7,18.583333333333333
2176,7234394.533160541
2177,63361083.22495615
2178,4452784.1984631209
2179,41740682.79129686
2180,3628401.4661728076
2181,37104141.91310354
2,6, 1, 6, 0,13, 0.00,60.00,Friday
7,19.0
2176,6329819.527104014
2177,63873350.4346897
2178,3678888.6230859237
2179,40253285.37768848
2180,3687007.556655867
2181,40957422.7585907
2,6, 1, 6, 0,14, 0.00,60.00,Friday
7,19.0
2176,8322881.405914165
2177,74662912.59967493
2178,4941118.810921552
2179,48426420.99517993
2180,4038589.719980601
2181,43545746.38265717
2,6, 1, 6, 0,15, 0.00,60.00,Friday
7,18.416666666666669
2176,7889206.761173083
2177,64171918.38874881
2178,5381742.296620533
2179,44931648.51708509
2180,4784242.754579465
2181,42859805.67227186
2,6, 1, 6, 0,16, 0.00,60.00,Friday
7,17.416666666666669
2176,8033507.90977777
2177,50569697.280725
2178,6071313.985756368
2179,37716816.94015731
2180,4740043.298764353
2181,33211178.426370384
2,6, 1, 6, 0,17, 0.00,60.00,Friday
7,15.833333333333334
2176,8509657.057097627
2177,28862986.477632636
2178,5083641.733834306
2179,18736711.20124968
2180,3983315.588078273
2181,16348723.87744048
2,6, 1, 6, 0,18, 0.00,60.00,Friday
7,11.5
2176,12096623.240016956
2177,0.0
2178,3912791.714751248
2179,0.0
2180,4121335.2676130395
2181,0.0
2,6, 1, 6, 0,19, 0.00,60.00,Friday
7,9.583333333333334
2176,3555872.6280724976
2177,0.0
2178,6721362.939201574
2179,0.0
2180,7982951.990900731
2181,0.0
2,6, 1, 6, 0,20, 0.00,60.00,Friday
7,9.416666666666666
2176,4454411.242530528
2177,0.0
2178,7469689.807489996
2179,0.0
2180,9508389.160512636
2181,0.0
2,6, 1, 6, 0,21, 0.00,60.00,Friday
7,9.0
2176,6658855.223155354
2177,0.0
2178,8954481.904297168
2179,0.0
2180,11540715.93193527
2181,0.0
2,6, 1, 6, 0,22, 0.00,60.00,Friday
7,9.583333333333334
2176,5855552.370320123
2177,0.0
2178,7287192.060132669
2179,0.0
2180,10253173.698708687
2181,0.0
2,6, 1, 6, 0,23, 0.00,60.00,Friday
7,7.083333333333333
2176,0.0
2177,0.0
2178,0.0
2179,0.0
2180,0.0
2181,0.0
2,6, 1, 6, 0,24, 0.00,60.00,Friday
7,6.166666666666667
2176,0.0
2177,0.0
2178,0.0
2179,0.0
2180,0.0
2181,0.0
2,7, 1, 7, 0, 1, 0.00,60.00,Saturday
7,6.416666666666667
2176,0.0
2177,0.0
2178,0.0
2179,0.0
2180,0.0
2181,0.0
2,7, 1, 7, 0, 2, 0.00,60.00,Saturday
7,4.833333333333333
2176,0.0
2177,0.0
2178,0.0
2179,0.0
2180,0.0
2181,0.0
2,7, 1, 7, 0, 3, 0.00,60.00,Saturday
7,6.916666666666667
2176,0.0
2177,0.0
2178,0.0
2179,0.0
2180,0.0
2181,0.0
2,7, 1, 7, 0, 4, 0.00,60.00,Saturday
7,10.166666666666666
2176,0.0
2177,0.0
2178,0.0
2179,0.0
2180,0.0
2181,0.0
2,7, 1, 7, 0, 5, 0.00,60.00,Saturday
7,8.083333333333334
2176,0.0
2177,0.0
2178,0.0
2179,0.0
2180,0.0
2181,0.0
2,7, 1, 7, 0, 6, 0.00,60.00,Saturday
7,7.75
2176,0.0
2177,0.0
2178,0.0
2179,0.0
2180,0.0
2181,0.0
2,7, 1, 7, 0, 7, 0.00,60.00,Saturday
7,7.25
2176,14364247.253988814
2177,0.0
2178,15320352.963420073
2179,0.0
2180,20131181.730123789
2181,0.0
2,7, 1, 7, 0, 8, 0.00,60.00,Saturday
7,7.75
2176,11469162.532938172
2177,0.0
2178,14031926.898725452
2179,0.0
2180,26287007.58816474
2181,0.0
2,7, 1, 7, 0, 9, 0.00,60.00,Saturday
7,12.5
2176,3149898.450509006
2177,1152717.7273505498
2178,3203033.122047425
2179,939871.5103678901
2180,5946468.592869083
2181,907858.7690957894
2,7, 1, 7, 0,10, 0.00,60.00,Saturday
7,16.75
2176,3343229.2835977177
2177,21609638.91627332
2178,2722698.239849668
2179,17512732.26896768
2180,2437702.3440028785
2181,15599039.850329133
2,7, 1, 7, 0,11, 0.00,60.00,Saturday
7,19.166666666666669
2176,3365171.946606568
2177,41170158.7744375
2178,2845941.6056287905
2179,34305992.024920437
2180,2667235.896627836
2181,32499230.216089325
2,7, 1, 7, 0,12, 0.00,60.00,Saturday
7,19.941666666666668
2176,3754256.510329044
2177,52542840.04545544
2178,3294738.596557054
2179,44306860.72059514
2180,2953471.579560824
2181,41022743.252044159
2,7, 1, 7, 0,13, 0.00,60.00,Saturday
7,19.375
2176,3329546.6110718196
2177,42887859.66090058
2178,2894083.6630057517
2179,36292508.62526316
2180,2878466.913488522
2181,36441853.719296
2,7, 1, 7, 0,14, 0.00,60.00,Saturday
7,17.833333333333333
2176,2993107.8579173136
2177,31757405.409184338
2178,2845704.0063072
2179,27852967.55200552
2180,2666212.502939343
2181,27293146.49792728
2,7, 1, 7, 0,15, 0.00,60.00,Saturday
7,15.833333333333334
2176,2954384.0659765547
2177,16991019.686432978
2178,2732588.2761043726
2179,15077887.930093037
2180,2741056.0306450116
2181,15366560.74199204
2,7, 1, 7, 0,16, 0.00,60.00,Saturday
7,14.416666666666666
2176,2954384.065976553
2177,3994891.960451409
2178,2903277.992281978
2179,3813403.052099643
2180,2636227.0368710064
2181,3539631.1131139604
2,7, 1, 7, 0,17, 0.00,60.00,Saturday
7,13.416666666666666
2176,2954384.065976553
2177,0.0
2178,2502100.288414887
2179,0.0
2180,2430418.155067475
2181,0.0
2,7, 1, 7, 0,18, 0.00,60.00,Saturday
7,12.416666666666666
2176,2954384.065976551
2177,0.0
2178,2420372.777258296
2179,0.0
2180,2424852.40874107
2181,0.0
2,7, 1, 7, 0,19, 0.00,60.00,Saturday
7,11.416666666666666
2176,0.0
2177,0.0
2178,0.0
2179,0.0
2180,0.0
2181,0.0
2,7, 1, 7, 0,20, 0.00,60.00,Saturday
7,10.416666666666666
2176,0.0
2177,0.0
2178,0.0
2179,0.0
2180,0.0
2181,0.0
2,7, 1, 7, 0,21, 0.00,60.00,Saturday
7,8.833333333333334
2176,0.0
2177,0.0
2178,0.0
2179,0.0
2180,0.0
2181,0.0
2,7, 1, 7, 0,22, 0.00,60.00,Saturday
7,8.0
2176,0.0
2177,0.0
2178,0.0
2179,0.0
2180,0.0
2181,0.0
2,7, 1, 7, 0,23, 0.00,60.00,Saturday
7,8.0
2176,0.0
2177,0.0
2178,0.0
2179,0.0
2180,0.0
2181,0.0
2,7, 1, 7, 0,24, 0.00,60.00,Saturday
7,6.833333333333333
2176,0.0
2177,0.0
2178,0.0
2179,0.0
2180,0.0
2181,0.0
2,8, 1, 8, 0, 1, 0.00,60.00,Sunday
7,6.0
2176,0.0
2177,0.0
2178,0.0
2179,0.0
2180,0.0
2181,0.0
2,8, 1, 8, 0, 2, 0.00,60.00,Sunday
7,6.583333333333333
2176,0.0
2177,0.0
2178,0.0
2179,0.0
2180,0.0
2181,0.0
2,8, 1, 8, 0, 3, 0.00,60.00,Sunday
7,5.833333333333333
2176,0.0
2177,0.0
2178,0.0
2179,0.0
2180,0.0
2181,0.0
2,8, 1, 8, 0, 4, 0.00,60.00,Sunday
7,4.416666666666667
2176,0.0
2177,0.0
2178,0.0
2179,0.0
2180,0.0
2181,0.0
2,8, 1, 8, 0, 5, 0.00,60.00,Sunday
7,3.4166666666666667
2176,0.0
2177,0.0
2178,0.0
2179,0.0
2180,0.0
2181,0.0
2,8, 1, 8, 0, 6, 0.00,60.00,Sunday
7,3.0
2176,0.0
2177,0.0
2178,0.0
2179,0.0
2180,0.0
2181,0.0
2,8, 1, 8, 0, 7, 0.00,60.00,Sunday
7,1.8333333333333333
2176,0.0
2177,0.0
2178,0.0
2179,0.0
2180,0.0
2181,0.0
2,8, 1, 8, 0, 8, 0.00,60.00,Sunday
7,3.9166666666666667
2176,0.0
2177,0.0
2178,0.0
2179,0.0
2180,0.0
2181,0.0
2,8, 1, 8, 0, 9, 0.00,60.00,Sunday
7,8.333333333333334
2176,0.0
2177,0.0
2178,0.0
2179,0.0
2180,0.0
2181,0.0
2,8, 1, 8, 0,10, 0.00,60.00,Sunday
7,11.75
2176,0.0
2177,0.0
2178,0.0
2179,0.0
2180,0.0
2181,0.0
2,8, 1, 8, 0,11, 0.00,60.00,Sunday
7,14.75
2176,0.0
2177,0.0
2178,0.0
2179,0.0
2180,0.0
2181,0.0
2,8, 1, 8, 0,12, 0.00,60.00,Sunday
7,16.583333333333333
2176,1230993.3608235622
2177,6763715.426668169
2178,2048296.8679886913
2179,12544702.782969732
2180,0.0
2181,0.0
2,8, 1, 8, 0,13, 0.00,60.00,Sunday
7,17.0
2176,2215788.0494824119
2177,15662743.020365192
2178,1644596.6099954886
2179,12553262.760965214
2180,1227253.9777574095
2181,9881120.968901989
2,8, 1, 8, 0,14, 0.00,60.00,Sunday
7,17.0
2176,1969589.3773177018
2177,14729070.147468836
2178,2125421.951791061
2179,16993825.753321157
2180,1327682.3339638843
2181,10415050.509752855
2,8, 1, 8, 0,15, 0.00,60.00,Sunday
7,16.416666666666669
2176,1723390.7051529939
2177,10610444.313374909
2178,1619104.7518491073
2179,10964860.061271087
2180,808284.1362470256
2181,6157135.540015595
2,8, 1, 8, 0,16, 0.00,60.00,Sunday
7,14.833333333333334
2176,984794.6886588507
2177,3995015.046592939
2178,0.0
2179,0.0
2180,0.0
2181,0.0
2,8, 1, 8, 0,17, 0.00,60.00,Sunday
7,12.833333333333334
2176,0.0
2177,0.0
2178,0.0
2179,0.0
2180,0.0
2181,0.0
2,8, 1, 8, 0,18, 0.00,60.00,Sunday
7,11.416666666666666
2176,0.0
2177,0.0
2178,0.0
2179,0.0
2180,0.0
2181,0.0
2,8, 1, 8, 0,19, 0.00,60.00,Sunday
7,9.833333333333334
2176,0.0
2177,0.0
2178,0.0
2179,0.0
2180,0.0
2181,0.0
2,8, 1, 8, 0,20, 0.00,60.00,Sunday
7,9.0
2176,0.0
2177,0.0
2178,0.0
2179,0.0
2180,0.0
2181,0.0
2,8, 1, 8, 0,21, 0.00,60.00,Sunday
7,9.0
2176,0.0
2177,0.0
2178,0.0
2179,0.0
2180,0.0
2181,0.0
2,8, 1, 8, 0,22, 0.00,60.00,Sunday
7,8.825000000000001
2176,0.0
2177,0.0
2178,0.0
2179,0.0
2180,0.0
2181,0.0
2,8, 1, 8, 0,23, 0.00,60.00,Sunday
7,8.525
2176,0.0
2177,0.0
2178,0.0
2179,0.0
2180,0.0
2181,0.0
2,8, 1, 8, 0,24, 0.00,60.00,Sunday
7,8.166666666666666
2176,0.0
2177,0.0
2178,0.0
2179,0.0
2180,0.0
2181,0.0
2,9, 1, 9, 0, 1, 0.00,60.00,Monday
7,6.25
2176,0.0
2177,0.0
2178,0.0
2179,0.0
2180,0.0
2181,0.0
2,9, 1, 9, 0, 2, 0.00,60.00,Monday
7,5.583333333333333
2176,0.0
2177,0.0
2178,0.0
2179,0.0
2180,0.0
2181,0.0
2,9, 1, 9, 0, 3, 0.00,60.00,Monday
7,4.833333333333333
2176,0.0
2177,0.0
2178,0.0
2179,0.0
2180,0.0
2181,0.0
2,9, 1, 9, 0, 4, 0.00,60.00,Monday
7,4.583333333333333
2176,0.0
2177,0.0
2178,0.0
2179,0.0
2180,0.0
2181,0.0
2,9, 1, 9, 0, 5, 0.00,60.00,Monday
7,5.583333333333333
2176,0.0
2177,0.0
2178,0.0
2179,0.0
2180,0.0
2181,0.0
2,9, 1, 9, 0, 6, 0.00,60.00,Monday
7,3.6666666666666667
2176,0.0
2177,0.0
2178,0.0