Program Version,EnergyPlus, Version 9.0.1-bb7ca4f0da, YMD=2022.04.26 19:50
1,5,Environment Title[],Latitude[deg],Longitude[deg],Time Zone[],Elevation[m]
2,8,Day of Simulation[],Month[],Day of Month[],DST Indicator[1=yes 0=no],Hour[],StartMinute[],EndMinute[],DayType
3,5,Cumulative Day of Simulation[],Month[],Day of Month[],DST Indicator[1=yes 0=no],DayType  ! When Daily Meters Requested
4,2,Cumulative Days of Simulation[],Month[]  ! When Monthly Meters Requested
5,1,Cumulative Days of Simulation[] ! When Run Period Meters Requested
6,1,Calendar Year of Simulation[] ! When Annual Meters Requested
25,1,Electricity:Facility [J] !Hourly
1870,1,ElectricityNet:Facility [J] !Hourly
757,1,Gas:Facility [J] !Hourly
End of Data Dictionary
1,RUNPERIOD 1,  32.58,-116.98,  -8.00, 159.00
2,1, 1, 1, 0, 1, 0.00,60.00,Holiday
25,46359074.93593144
757,6791184.0
1870,46359074.93593143
2,1, 1, 1, 0, 2, 0.00,60.00,Holiday
25,46359235.70955593
757,6791184.0
1870,46359235.709555927
2,1, 1, 1, 0, 3, 0.00,60.00,Holiday
25,46359235.70955593
757,6791184.0
1870,46359235.709555927
2,1, 1, 1, 0, 4, 0.00,60.00,Holiday
25,46359235.70955593
757,6791184.0
1870,46359235.709555927
2,1, 1, 1, 0, 5, 0.00,60.00,Holiday
25,46359235.70955593
757,6791184.0
1870,46359235.709555927
2,1, 1, 1, 0, 6, 0.00,60.00,Holiday
25,46359235.70955593
757,6791184.0
1870,46359235.709555927
2,1, 1, 1, 0, 7, 0.00,60.00,Holiday
25,62835664.11785701
757,6791184.0
1870,62835664.11785701
2,1, 1, 1, 0, 8, 0.00,60.00,Holiday
25,46641429.03377286
757,6791184.0
1870,46641429.03377286
2,1, 1, 1, 0, 9, 0.00,60.00,Holiday
25,46320927.947663698
757,6791184.0
1870,46320927.947663698
2,1, 1, 1, 0,10, 0.00,60.00,Holiday
25,46288812.51597283
757,6791184.0
1870,46288812.51597283
2,1, 1, 1, 0,11, 0.00,60.00,Holiday
25,46333177.971896018
757,6791184.0
1870,46333177.97189601
2,1, 1, 1, 0,12, 0.00,60.00,Holiday
25,46294868.38195652
757,6791184.0
1870,46294868.38195651
2,1, 1, 1, 0,13, 0.00,60.00,Holiday
25,46288812.51597283
757,6791184.0
1870,46288812.51597283
2,1, 1, 1, 0,14, 0.00,60.00,Holiday
25,46288812.51597283
757,6791184.0
1870,46288812.51597283
2,1, 1, 1, 0,15, 0.00,60.00,Holiday
25,46297049.95146436
757,6791184.0
1870,46297049.951464358
2,1, 1, 1, 0,16, 0.00,60.00,Holiday
25,46363740.30021446
757,6791184.0
1870,46363740.30021446
2,1, 1, 1, 0,17, 0.00,60.00,Holiday
25,53321942.22249201
757,6791184.0
1870,53321942.22249201
2,1, 1, 1, 0,18, 0.00,60.00,Holiday
25,66276703.53612528
757,6791184.0
1870,66276703.53612528
2,1, 1, 1, 0,19, 0.00,60.00,Holiday
25,57105773.81922845
757,6791184.0
1870,57105773.81922844
2,1, 1, 1, 0,20, 0.00,60.00,Holiday
25,48904615.70955593
757,6791184.0
1870,48904615.70955593
2,1, 1, 1, 0,21, 0.00,60.00,Holiday
25,48904615.70955593
757,6791184.0
1870,48904615.70955593
2,1, 1, 1, 0,22, 0.00,60.00,Holiday
25,48904615.70955593
757,6791184.0
1870,48904615.70955593
2,1, 1, 1, 0,23, 0.00,60.00,Holiday
25,48904615.70955593
757,6791184.0
1870,48904615.70955593
2,1, 1, 1, 0,24, 0.00,60.00,Holiday
25,48904615.70955593
757,6791184.0
1870,48904615.70955593
2,2, 1, 2, 0, 1, 0.00,60.00,Monday
25,57609860.1137362
757,6791184.0
1870,57609860.1137362
2,2, 1, 2, 0, 2, 0.00,60.00,Monday
25,57609860.1137362
757,6791184.0
1870,57609860.1137362
2,2, 1, 2, 0, 3, 0.00,60.00,Monday
25,57609860.1137362
757,6791184.0
1870,57609860.1137362
2,2, 1, 2, 0, 4, 0.00,60.00,Monday
25,57609860.1137362
757,6791184.0
1870,57609860.1137362
2,2, 1, 2, 0, 5, 0.00,60.00,Monday
25,57609860.1137362
757,6791184.0
1870,57609860.1137362
2,2, 1, 2, 0, 6, 0.00,60.00,Monday
25,57609860.1137362
757,6791184.0
1870,57609860.1137362
2,2, 1, 2, 0, 7, 0.00,60.00,Monday
25,102260573.54914749
757,16765126.867798359
1870,102260573.54914749
2,2, 1, 2, 0, 8, 0.00,60.00,Monday
25,194923276.27221684
757,15574128.540934235
1870,194923276.27221684
2,2, 1, 2, 0, 9, 0.00,60.00,Monday
25,298556918.5009955
757,8053834.62149177
1870,298556918.50099548
2,2, 1, 2, 0,10, 0.00,60.00,Monday
25,261478917.95200277
757,6791184.0
1870,261478917.9520027
2,2, 1, 2, 0,11, 0.00,60.00,Monday
25,257010288.70320357
757,6791184.0
1870,257010288.70320357
2,2, 1, 2, 0,12, 0.00,60.00,Monday
25,266329473.24738959
757,11367889.301236343
1870,266329473.24738956
2,2, 1, 2, 0,13, 0.00,60.00,Monday
25,266482595.91271986
757,25841479.469324545
1870,266482595.91271983
2,2, 1, 2, 0,14, 0.00,60.00,Monday
25,270135930.77257826
757,25620690.123423928
1870,270135930.77257826
2,2, 1, 2, 0,15, 0.00,60.00,Monday
25,256836150.69913636
757,15518670.300776598
1870,256836150.69913633
2,2, 1, 2, 0,16, 0.00,60.00,Monday
25,257661247.51879854
757,15487565.449794196
1870,257661247.5187985
2,2, 1, 2, 0,17, 0.00,60.00,Monday
25,285744291.44542548
757,20388130.861886484
1870,285744291.4454254
2,2, 1, 2, 0,18, 0.00,60.00,Monday
25,236677567.00223578
757,23153717.449339805
1870,236677567.00223575
2,2, 1, 2, 0,19, 0.00,60.00,Monday
25,129331873.05994855
757,39451452.559779319
1870,129331873.05994857
2,2, 1, 2, 0,20, 0.00,60.00,Monday
25,113926383.26467364
757,51266565.05057907
1870,113926383.26467365
2,2, 1, 2, 0,21, 0.00,60.00,Monday
25,106584303.72641552
757,69144366.89786546
1870,106584303.72641552
2,2, 1, 2, 0,22, 0.00,60.00,Monday
25,104690328.47616224
757,68398357.45742244
1870,104690328.47616226
2,2, 1, 2, 0,23, 0.00,60.00,Monday
25,77772390.65670999
757,6791184.0
1870,77772390.65670999
2,2, 1, 2, 0,24, 0.00,60.00,Monday
25,72442274.24247962
757,6791184.0
1870,72442274.24247962
2,3, 1, 3, 0, 1, 0.00,60.00,Tuesday
25,57996196.7332391
757,6791184.0
1870,57996196.7332391
2,3, 1, 3, 0, 2, 0.00,60.00,Tuesday
25,57609860.1137362
757,6791184.0
1870,57609860.1137362
2,3, 1, 3, 0, 3, 0.00,60.00,Tuesday
25,57609860.1137362
757,6791184.0
1870,57609860.1137362
2,3, 1, 3, 0, 4, 0.00,60.00,Tuesday
25,57609860.1137362
757,6791184.0
1870,57609860.1137362
2,3, 1, 3, 0, 5, 0.00,60.00,Tuesday
25,57609860.1137362
757,6791184.0
1870,57609860.1137362
2,3, 1, 3, 0, 6, 0.00,60.00,Tuesday
25,57609860.1137362
757,6791184.0
1870,57609860.1137362
2,3, 1, 3, 0, 7, 0.00,60.00,Tuesday
25,107060831.80630924
757,92942511.55871408
1870,107060831.80630926
2,3, 1, 3, 0, 8, 0.00,60.00,Tuesday
25,185807527.36058299
757,81942585.74267845
1870,185807527.360583
2,3, 1, 3, 0, 9, 0.00,60.00,Tuesday
25,299434250.9279728
757,29953275.637119377
1870,299434250.9279728
2,3, 1, 3, 0,10, 0.00,60.00,Tuesday
25,262893059.32607348
757,7526524.318975408
1870,262893059.32607348
2,3, 1, 3, 0,11, 0.00,60.00,Tuesday
25,258520135.3952629
757,6791184.0
1870,258520135.3952629
2,3, 1, 3, 0,12, 0.00,60.00,Tuesday
25,284022125.566169
757,15946656.934440356
1870,284022125.56616899
2,3, 1, 3, 0,13, 0.00,60.00,Tuesday
25,297261268.02625986
757,25838587.04902881
1870,297261268.02625986
2,3, 1, 3, 0,14, 0.00,60.00,Tuesday
25,299852011.3705479
757,25618889.956522049
1870,299852011.3705479
2,3, 1, 3, 0,15, 0.00,60.00,Tuesday
25,284312273.7689951
757,15517361.804768399
1870,284312273.7689951
2,3, 1, 3, 0,16, 0.00,60.00,Tuesday
25,284304721.06662717
757,15485623.30485236
1870,284304721.066627
2,3, 1, 3, 0,17, 0.00,60.00,Tuesday
25,293825271.4283366
757,20387158.970070393
1870,293825271.4283366
2,3, 1, 3, 0,18, 0.00,60.00,Tuesday
25,227193280.74226103
757,11048841.308480233
1870,227193280.742261
2,3, 1, 3, 0,19, 0.00,60.00,Tuesday
25,128632984.63847497
757,11262675.961743474
1870,128632984.63847497
2,3, 1, 3, 0,20, 0.00,60.00,Tuesday
25,111532289.70802439
757,6961168.148385997
1870,111532289.7080244
2,3, 1, 3, 0,21, 0.00,60.00,Tuesday
25,100888172.62045086
757,13953583.756518592
1870,100888172.62045087
2,3, 1, 3, 0,22, 0.00,60.00,Tuesday
25,97422763.59462936
757,39431699.53034095
1870,97422763.59462936
2,3, 1, 3, 0,23, 0.00,60.00,Tuesday
25,77772390.65670999
757,6791184.0
1870,77772390.65670999
2,3, 1, 3, 0,24, 0.00,60.00,Tuesday
25,72442274.24247962
757,6791184.0
1870,72442274.24247962
2,4, 1, 4, 0, 1, 0.00,60.00,Wednesday
25,57996196.7332391
757,6791184.0
1870,57996196.7332391
2,4, 1, 4, 0, 2, 0.00,60.00,Wednesday
25,57609860.1137362
757,6791184.0
1870,57609860.1137362
2,4, 1, 4, 0, 3, 0.00,60.00,Wednesday
25,57609860.1137362
757,6791184.0
1870,57609860.1137362
2,4, 1, 4, 0, 4, 0.00,60.00,Wednesday
25,57609860.1137362
757,6791184.0
1870,57609860.1137362
2,4, 1, 4, 0, 5, 0.00,60.00,Wednesday
25,57609860.1137362
757,6791184.0
1870,57609860.1137362
2,4, 1, 4, 0, 6, 0.00,60.00,Wednesday
25,57609860.1137362
757,6791184.0
1870,57609860.1137362
2,4, 1, 4, 0, 7, 0.00,60.00,Wednesday
25,91299193.20806213
757,58132330.31582601
1870,91299193.20806213
2,4, 1, 4, 0, 8, 0.00,60.00,Wednesday
25,156282491.6761595
757,22701383.7648102
1870,156282491.6761595
2,4, 1, 4, 0, 9, 0.00,60.00,Wednesday
25,296500580.0212878
757,6791184.0
1870,296500580.0212878
2,4, 1, 4, 0,10, 0.00,60.00,Wednesday
25,276600716.9769557
757,6791184.0
1870,276600716.9769558
2,4, 1, 4, 0,11, 0.00,60.00,Wednesday
25,282454469.6675688
757,6791184.0
1870,282454469.66756877
2,4, 1, 4, 0,12, 0.00,60.00,Wednesday
25,299105862.7765985
757,15947482.814589216
1870,299105862.7765985
2,4, 1, 4, 0,13, 0.00,60.00,Wednesday
25,302764501.05109599
757,25839646.68947851
1870,302764501.0510959
2,4, 1, 4, 0,14, 0.00,60.00,Wednesday
25,314216719.53175
757,25619638.035202076
1870,314216719.53175
2,4, 1, 4, 0,15, 0.00,60.00,Wednesday
25,300638388.78076776
757,15517416.693760679
1870,300638388.78076776
2,4, 1, 4, 0,16, 0.00,60.00,Wednesday
25,295625019.398035
757,15485505.118354138
1870,295625019.39803496
2,4, 1, 4, 0,17, 0.00,60.00,Wednesday
25,307155988.5592028
757,20388079.517611706
1870,307155988.5592028
2,4, 1, 4, 0,18, 0.00,60.00,Wednesday
25,234871523.89835993
757,11048326.393824157
1870,234871523.8983599
2,4, 1, 4, 0,19, 0.00,60.00,Wednesday
25,131024449.32616984
757,10982348.370123648
1870,131024449.32616984
2,4, 1, 4, 0,20, 0.00,60.00,Wednesday
25,111532289.70802439
757,9626525.806321556
1870,111532289.7080244
2,4, 1, 4, 0,21, 0.00,60.00,Wednesday
25,100873580.38079453
757,12748531.693994416
1870,100873580.38079456
2,4, 1, 4, 0,22, 0.00,60.00,Wednesday
25,96230682.93391708
757,16238028.790781126
1870,96230682.93391708
2,4, 1, 4, 0,23, 0.00,60.00,Wednesday
25,77772390.65670999
757,6791184.0
1870,77772390.65670999
2,4, 1, 4, 0,24, 0.00,60.00,Wednesday
25,72442274.24247962
757,6791184.0
1870,72442274.24247962
2,5, 1, 5, 0, 1, 0.00,60.00,Thursday
25,57996196.7332391
757,6791184.0
1870,57996196.7332391
2,5, 1, 5, 0, 2, 0.00,60.00,Thursday
25,57609860.1137362
757,6791184.0
1870,57609860.1137362
2,5, 1, 5, 0, 3, 0.00,60.00,Thursday
25,57609860.1137362
757,6791184.0
1870,57609860.1137362
2,5, 1, 5, 0, 4, 0.00,60.00,Thursday
25,57609860.1137362
757,6791184.0
1870,57609860.1137362
2,5, 1, 5, 0, 5, 0.00,60.00,Thursday
25,57609860.1137362
757,6791184.0
1870,57609860.1137362
2,5, 1, 5, 0, 6, 0.00,60.00,Thursday
25,57609860.1137362
757,6791184.0
1870,57609860.1137362
2,5, 1, 5, 0, 7, 0.00,60.00,Thursday
25,89000700.85617469
757,69592856.8235225
1870,89000700.8561747
2,5, 1, 5, 0, 8, 0.00,60.00,Thursday
25,154944371.28452558
757,51377052.27593007
1870,154944371.28452558
2,5, 1, 5, 0, 9, 0.00,60.00,Thursday
25,298225860.4661107
757,12800983.06552603
1870,298225860.4661106
2,5, 1, 5, 0,10, 0.00,60.00,Thursday
25,271901974.30750307
757,6791184.0
1870,271901974.30750307
2,5, 1, 5, 0,11, 0.00,60.00,Thursday
25,278477322.5578983
757,6791184.0
1870,278477322.55789819
2,5, 1, 5, 0,12, 0.00,60.00,Thursday
25,295157964.2955879
757,15948598.791354647
1870,295157964.2955879
2,5, 1, 5, 0,13, 0.00,60.00,Thursday
25,298085577.9784588
757,25841973.328951159
1870,298085577.97845879
2,5, 1, 5, 0,14, 0.00,60.00,Thursday
25,304676195.1911441
757,25621440.397180764
1870,304676195.1911441
2,5, 1, 5, 0,15, 0.00,60.00,Thursday
25,288018650.04675957
757,15518751.938371672
1870,288018650.04675957
2,5, 1, 5, 0,16, 0.00,60.00,Thursday
25,281887652.63518896
757,15486758.9512772
1870,281887652.635189
2,5, 1, 5, 0,17, 0.00,60.00,Thursday
25,289724263.8335897
757,20389296.46199042
1870,289724263.8335897
2,5, 1, 5, 0,18, 0.00,60.00,Thursday
25,227407960.8352691
757,11043713.373062579
1870,227407960.8352691
2,5, 1, 5, 0,19, 0.00,60.00,Thursday
25,128992103.75604819
757,10982530.691100507
1870,128992103.75604819
2,5, 1, 5, 0,20, 0.00,60.00,Thursday
25,111535034.85058977
757,12447217.33822196
1870,111535034.85058977
2,5, 1, 5, 0,21, 0.00,60.00,Thursday
25,100873580.38079453
757,25516840.05877628
1870,100873580.38079456
2,5, 1, 5, 0,22, 0.00,60.00,Thursday
25,96230682.93391708
757,18438708.90799024
1870,96230682.93391708
2,5, 1, 5, 0,23, 0.00,60.00,Thursday
25,77772390.65670999
757,6791184.0
1870,77772390.65670999
2,5, 1, 5, 0,24, 0.00,60.00,Thursday
25,72442274.24247962
757,6791184.0
1870,72442274.24247962
2,6, 1, 6, 0, 1, 0.00,60.00,Friday
25,57996196.7332391
757,6791184.0
1870,57996196.7332391
2,6, 1, 6, 0, 2, 0.00,60.00,Friday
25,57609860.1137362
757,6791184.0
1870,57609860.1137362
2,6, 1, 6, 0, 3, 0.00,60.00,Friday
25,57609860.1137362
757,6791184.0
1870,57609860.1137362
2,6, 1, 6, 0, 4, 0.00,60.00,Friday
25,57609860.1137362
757,6791184.0
1870,57609860.1137362
2,6, 1, 6, 0, 5, 0.00,60.00,Friday
25,57609860.1137362
757,6791184.0
1870,57609860.1137362
2,6, 1, 6, 0, 6, 0.00,60.00,Friday
25,57609860.1137362
757,6791184.0
1870,57609860.1137362
2,6, 1, 6, 0, 7, 0.00,60.00,Friday
25,89004156.4737705
757,36958334.25876058
1870,89004156.4737705
2,6, 1, 6, 0, 8, 0.00,60.00,Friday
25,150822250.68799145
757,30360228.280114876
1870,150822250.68799145
2,6, 1, 6, 0, 9, 0.00,60.00,Friday
25,298902316.9725207
757,12342176.770078255
1870,298902316.9725207
2,6, 1, 6, 0,10, 0.00,60.00,Friday
25,276815891.4647252
757,6791184.0
1870,276815891.46472516
2,6, 1, 6, 0,11, 0.00,60.00,Friday
25,286573922.4301162
757,6791184.0
1870,286573922.4301161
2,6, 1, 6, 0,12, 0.00,60.00,Friday
25,303497117.05278226
757,15949274.049683422
1870,303497117.0527822
2,6, 1, 6, 0,13, 0.00,60.00,Friday
25,305610210.66021046
757,25843605.674882879
1870,305610210.6602104
2,6, 1, 6, 0,14, 0.00,60.00,Friday
25,316526281.7921716
757,25622915.906031059
1870,316526281.7921716
2,6, 1, 6, 0,15, 0.00,60.00,Friday
25,301433145.2607284
757,15518605.30303242
1870,301433145.26072838
2,6, 1, 6, 0,16, 0.00,60.00,Friday
25,296182610.4382987
757,15486308.909367416
1870,296182610.43829867
2,6, 1, 6, 0,17, 0.00,60.00,Friday
25,305028435.6406883
757,20389562.32246898
1870,305028435.64068827
2,6, 1, 6, 0,18, 0.00,60.00,Friday
25,231349508.46260868
757,14762234.636357446
1870,231349508.46260868
2,6, 1, 6, 0,19, 0.00,60.00,Friday
25,129234473.20057093
757,23152021.758303584
1870,129234473.20057093
2,6, 1, 6, 0,20, 0.00,60.00,Friday
25,111637370.27356977
757,23492172.13952085
1870,111637370.27356978
2,6, 1, 6, 0,21, 0.00,60.00,Friday
25,100881816.78002598
757,30675390.676765857
1870,100881816.78002602
2,6, 1, 6, 0,22, 0.00,60.00,Friday
25,96230682.93391708
757,26045886.317512976
1870,96230682.93391708
2,6, 1, 6, 0,23, 0.00,60.00,Friday
25,77772390.65670999
757,6791184.0
1870,77772390.65670999
2,6, 1, 6, 0,24, 0.00,60.00,Friday
25,72442274.24247962
757,6791184.0
1870,72442274.24247962
2,7, 1, 7, 0, 1, 0.00,60.00,Saturday
25,46745513.81922844
757,6791184.0
1870,46745513.81922843
2,7, 1, 7, 0, 2, 0.00,60.00,Saturday
25,46359235.70955593
757,6791184.0
1870,46359235.709555927
2,7, 1, 7, 0, 3, 0.00,60.00,Saturday
25,46359235.70955593
757,6791184.0
1870,46359235.709555927
2,7, 1, 7, 0, 4, 0.00,60.00,Saturday
25,46359235.70955593
757,6791184.0
1870,46359235.709555927
2,7, 1, 7, 0, 5, 0.00,60.00,Saturday
25,46359235.70955593
757,6791184.0
1870,46359235.709555927
2,7, 1, 7, 0, 6, 0.00,60.00,Saturday
25,46359235.70955593
757,6791184.0
1870,46359235.709555927
2,7, 1, 7, 0, 7, 0.00,60.00,Saturday
25,88997660.43883918
757,58663002.14266235
1870,88997660.43883918
2,7, 1, 7, 0, 8, 0.00,60.00,Saturday
25,99577273.02174729
757,51141068.1007963
1870,99577273.02174729
2,7, 1, 7, 0, 9, 0.00,60.00,Saturday
25,121974719.96402055
757,10386433.24181709
1870,121974719.96402055
2,7, 1, 7, 0,10, 0.00,60.00,Saturday
25,142971275.74336673
757,6791184.0
1870,142971275.74336673
2,7, 1, 7, 0,11, 0.00,60.00,Saturday
25,152947387.799776
757,6791184.0
1870,152947387.79977597
2,7, 1, 7, 0,12, 0.00,60.00,Saturday
25,168997669.24469147
757,6791184.0
1870,168997669.24469147
2,7, 1, 7, 0,13, 0.00,60.00,Saturday
25,124841727.79139912
757,6791184.0
1870,124841727.7913991
2,7, 1, 7, 0,14, 0.00,60.00,Saturday
25,108163118.37362582
757,6791184.0
1870,108163118.37362582
2,7, 1, 7, 0,15, 0.00,60.00,Saturday
25,92334345.97742747
757,6791184.0
1870,92334345.97742749
2,7, 1, 7, 0,16, 0.00,60.00,Saturday
25,78136584.77429278
757,6791184.0
1870,78136584.7742928
2,7, 1, 7, 0,17, 0.00,60.00,Saturday
25,80319869.18802779
757,6791184.0
1870,80319869.18802779
2,7, 1, 7, 0,18, 0.00,60.00,Saturday
25,81039917.97152272
757,6791184.0
1870,81039917.97152272
2,7, 1, 7, 0,19, 0.00,60.00,Saturday
25,66276703.53612528
757,6791184.0
1870,66276703.53612528
2,7, 1, 7, 0,20, 0.00,60.00,Saturday
25,49290893.81922844
757,6791184.0
1870,49290893.81922844
2,7, 1, 7, 0,21, 0.00,60.00,Saturday
25,48904615.70955593
757,6791184.0
1870,48904615.70955593
2,7, 1, 7, 0,22, 0.00,60.00,Saturday
25,48904615.70955593
757,6791184.0
1870,48904615.70955593
2,7, 1, 7, 0,23, 0.00,60.00,Saturday
25,48904615.70955593
757,6791184.0
1870,48904615.70955593
2,7, 1, 7, 0,24, 0.00,60.00,Saturday
25,48904615.70955593
757,6791184.0
1870,48904615.70955593
2,8, 1, 8, 0, 1, 0.00,60.00,Sunday
25,46359235.70955593
757,6791184.0
1870,46359235.709555927
2,8, 1, 8, 0, 2, 0.00,60.00,Sunday
25,46359235.70955593
757,6791184.0
1870,46359235.709555927
2,8, 1, 8, 0, 3, 0.00,60.00,Sunday
25,46359235.70955593
757,6791184.0
1870,46359235.709555927
2,8, 1, 8, 0, 4, 0.00,60.00,Sunday
25,46359235.70955593
757,6791184.0
1870,46359235.709555927
2,8, 1, 8, 0, 5, 0.00,60.00,Sunday
25,46359235.70955593
757,6791184.0
1870,46359235.709555927
2,8, 1, 8, 0, 6, 0.00,60.00,Sunday
25,46359235.70955593
757,6791184.0
1870,46359235.709555927
2,8, 1, 8, 0, 7, 0.00,60.00,Sunday
25,62835260.56584349
757,6791184.0
1870,62835260.56584349
2,8, 1, 8, 0, 8, 0.00,60.00,Sunday
25,46636956.98861474
757,6791184.0
1870,46636956.98861474
2,8, 1, 8, 0, 9, 0.00,60.00,Sunday
25,46346575.85160996
757,6791184.0
1870,46346575.85160995
2,8, 1, 8, 0,10, 0.00,60.00,Sunday
25,46288814.02369006
757,6791184.0
1870,46288814.02369006
2,8, 1, 8, 0,11, 0.00,60.00,Sunday
25,46288812.51597283
757,6791184.0
1870,46288812.51597283
2,8, 1, 8, 0,12, 0.00,60.00,Sunday
25,54701928.70533972
757,6791184.0
1870,54701928.70533972
2,8, 1, 8, 0,13, 0.00,60.00,Sunday
25,61695117.23763472
757,6791184.0
1870,61695117.23763472
2,8, 1, 8, 0,14, 0.00,60.00,Sunday
25,63006413.91755174
757,6791184.0
1870,63006413.91755174
2,8, 1, 8, 0,15, 0.00,60.00,Sunday
25,57950487.89086054
757,6791184.0
1870,57950487.89086054
2,8, 1, 8, 0,16, 0.00,60.00,Sunday
25,48471457.40649047
757,6791184.0
1870,48471457.40649046
2,8, 1, 8, 0,17, 0.00,60.00,Sunday
25,50045282.17486653
757,6791184.0
1870,50045282.17486654
2,8, 1, 8, 0,18, 0.00,60.00,Sunday
25,66276703.53612528
757,6791184.0
1870,66276703.53612528
2,8, 1, 8, 0,19, 0.00,60.00,Sunday
25,57105773.81922845
757,6791184.0
1870,57105773.81922844
2,8, 1, 8, 0,20, 0.00,60.00,Sunday
25,48904615.70955593
757,6791184.0
1870,48904615.70955593
2,8, 1, 8, 0,21, 0.00,60.00,Sunday
25,48904615.70955593
757,6791184.0
1870,48904615.70955593
2,8, 1, 8, 0,22, 0.00,60.00,Sunday
25,48904615.70955593
757,6791184.0
1870,48904615.70955593
2,8, 1, 8, 0,23, 0.00,60.00,Sunday
25,48904615.70955593
757,6791184.0
1870,48904615.70955593
2,8, 1, 8, 0,24, 0.00,60.00,Sunday
25,48904615.70955593
757,6791184.0
1870,48904615.70955593
2,9, 1, 9, 0, 1, 0.00,60.00,Monday
25,57609860.1137362
757,6791184.0
1870,57609860.1137362
2,9, 1, 9, 0, 2, 0.00,60.00,Monday
25,57609860.1137362
757,6791184.0
1870,57609860.1137362
2,9, 1, 9, 0, 3, 0.00,60.00,Monday
25,57609860.1137362
757,6791184.0
1870,57609860.1137362
2,9, 1, 9, 0, 4, 0.00,60.00,Monday
25,57609860.1137362
757,6791184.0
1870,57609860.1137362
2,9, 1, 9, 0, 5, 0.00,60.00,Monday
25,57609860.1137362
757,6791184.0
1870,57609860.1137362
2,9, 1, 9, 0, 6, 0.00,60.00,Monday
25,57609860.1137362
757,6791184.0
1870,57609860.1137362
2,9, 1, 9, 0, 7, 0.00,60.00,Monday
25,105778938.79505313
757,96889247.43919902
1870,105778938.79505316
2,9, 1, 9, 0, 8, 0.00,60.00,Monday
25,172784185.68876834
757,79716356.30987537
1870,172784185.6887683
2,9, 1, 9, 0, 9, 0.00,60.00,Monday
25,298884153.6358073
757,28910443.159108703
1870,298884153.6358073
2,9, 1, 9, 0,10, 0.00,60.00,Monday
25,264046303.54141695
757,7153372.121810908
1870,264046303.54141695
2,9, 1, 9, 0,11, 0.00,60.00,Monday
25,269201869.8674401
757,6791184.0
1870,269201869.8674401
2,9, 1, 9, 0,12, 0.00,60.00,Monday
25,295110483.1378661
757,11371177.066587247
1870,295110483.137866
2,9, 1, 9, 0,13, 0.00,60.00,Monday
25,298487639.11718288
757,25825344.526644198
1870,298487639.1171828
2,9, 1, 9, 0,14, 0.00,60.00,Monday
25,303900414.7104537
757,25626527.318238025
1870,303900414.7104537
2,9, 1, 9, 0,15, 0.00,60.00,Monday
25,285225986.9247713
757,15530409.303807028
1870,285225986.9247713
2,9, 1, 9, 0,16, 0.00,60.00,Monday
25,277238614.61247786
757,15504367.662497217
1870,277238614.6124778
2,9, 1, 9, 0,17, 0.00,60.00,Monday
25,287219320.1131449
757,20386032.46369545
1870,287219320.1131449
2,9, 1, 9, 0,18, 0.00,60.00,Monday
25,229071049.72792525
757,11037928.67804038
1870,229071049.72792525
2,9, 1, 9, 0,19, 0.00,60.00,Monday
25,128871531.36763032
757,17075957.21151674
1870,128871531.36763032
2,9, 1, 9, 0,20, 0.00,60.00,Monday
25,111532289.70802439
757,12607206.2832643
1870,111532289.7080244
2,9, 1, 9, 0,21, 0.00,60.00,Monday
25,100873580.38079453
757,23446895.516935365
1870,100873580.38079456
2,9, 1, 9, 0,22, 0.00,60.00,Monday
25,96729949.62632433
757,49129039.10656021
1870,96729949.62632434
2,9, 1, 9, 0,23, 0.00,60.00,Monday
25,77772390.65670999
757,6791184.0
1870,77772390.65670999
2,9, 1, 9, 0,24, 0.00,60.00,Monday
25,72442274.24247962
757,6791184.0
1870,72442274.24247962
2,10, 1,10, 0, 1, 0.00,60.00,Tuesday
25,57996196.7332391
757,6791184.0
1870,57996196.7332391
2,10, 1,10, 0, 2, 0.00,60.00,Tuesday
25,57609860.1137362
757,6791184.0
1870,57609860.1137362
2,10, 1,10, 0, 3, 0.00,60.00,Tuesday
25,57609860.1137362
757,6791184.0
1870,57609860.1137362
2,10, 1,10, 0, 4, 0.00,60.00,Tuesday
25,57609860.1137362
757,6791184.0
1870,57609860.1137362
2,10, 1,10, 0, 5, 0.00,60.00,Tuesday
25,57609860.1137362
757,6791184.0
1870,57609860.1137362
2,10, 1,10, 0, 6, 0.00,60.00,Tuesday
25,57609860.1137362
757,6791184.0
1870,57609860.1137362
2,10, 1,10, 0, 7, 0.00,60.00,Tuesday
25,94635613.05738601
757,87810735.47292179
1870,94635613.05738603
2,10, 1,10, 0, 8, 0.00,60.00,Tuesday
25,161414125.49570105
757,66134244.968756947
1870,161414125.49570105
2,10, 1,10, 0, 9, 0.00,60.00,Tuesday
25,298192609.3702124
757,19727023.770133076
1870,298192609.3702124
2,10, 1,10, 0,10, 0.00,60.00,Tuesday
25,269442376.9670128
757,6791184.0
1870,269442376.96701279
2,10, 1,10, 0,11, 0.00,60.00,Tuesday
25,276173757.79102209
757,6791184.0
1870,276173757.79102209
2,10, 1,10, 0,12, 0.00,60.00,Tuesday
25,289807360.9193417
757,15955239.046248854
1870,289807360.9193417
2,10, 1,10, 0,13, 0.00,60.00,Tuesday
25,294969072.86236897
757,25843327.62348593
1870,294969072.8623689
2,10, 1,10, 0,14, 0.00,60.00,Tuesday
25,304218909.8900586
757,25627531.382415825
1870,304218909.8900586
2,10, 1,10, 0,15, 0.00,60.00,Tuesday
25,286462744.41062107
757,15549296.2072017
1870,286462744.410621
2,10, 1,10, 0,16, 0.00,60.00,Tuesday
25,274724436.9722598
757,15522265.49000511
1870,274724436.9722597
2,10, 1,10, 0,17, 0.00,60.00,Tuesday
25,286694767.7531904
757,20383349.645747499
1870,286694767.75319036
2,10, 1,10, 0,18, 0.00,60.00,Tuesday
25,228842009.9373682
757,11030993.28071251
1870,228842009.93736816
2,10, 1,10, 0,19, 0.00,60.00,Tuesday
25,128980107.30572193
757,11089535.916910924
1870,128980107.30572193
2,10, 1,10, 0,20, 0.00,60.00,Tuesday
25,111532289.70802439
757,19794463.706476064
1870,111532289.7080244
2,10, 1,10, 0,21, 0.00,60.00,Tuesday
25,100873580.38079453
757,45410721.177827607
1870,100873580.38079456
2,10, 1,10, 0,22, 0.00,60.00,Tuesday
25,96230682.93391708
757,57022816.75482992
1870,96230682.93391708
2,10, 1,10, 0,23, 0.00,60.00,Tuesday
25,77772390.65670999
757,6791184.0
1870,77772390.65670999
2,10, 1,10, 0,24, 0.00,60.00,Tuesday
25,72442274.24247962
757,6791184.0
1870,72442274.24247962
2,11, 1,11, 0, 1, 0.00,60.00,Wednesday
25,57996196.7332391
757,6791184.0
1870,57996196.7332391
2,11, 1,11, 0, 2, 0.00,60.00,Wednesday
25,57609860.1137362
757,6791184.0
1870,57609860.1137362
2,11, 1,11, 0, 3, 0.00,60.00,Wednesday
25,57609860.1137362
757,6791184.0
1870,57609860.1137362
2,11, 1,11, 0, 4, 0.00,60.00,Wednesday
25,57609860.1137362
757,6791184.0
1870,57609860.1137362
2,11, 1,11, 0, 5, 0.00,60.00,Wednesday
25,57609860.1137362
757,6791184.0
1870,57609860.1137362
2,11, 1,11, 0, 6, 0.00,60.00,Wednesday
25,57609860.1137362
757,6791184.0
1870,57609860.1137362
2,11, 1,11, 0, 7, 0.00,60.00,Wednesday
25,89132542.94802824
757,77263362.82544558
1870,89132542.94802825
2,11, 1,11, 0, 8, 0.00,60.00,Wednesday
25,156359894.32661227
757,59259237.57014745
1870,156359894.3266123
2,11, 1,11, 0, 9, 0.00,60.00,Wednesday
25,299124315.1241562
757,25334013.55299755
1870,299124315.1241562
2,11, 1,11, 0,10, 0.00,60.00,Wednesday
25,266353638.89307926
757,6894830.146914374
1870,266353638.89307923
2,11, 1,11, 0,11, 0.00,60.00,Wednesday
25,262849242.72467897
757,6791184.0
1870,262849242.72467888
2,11, 1,11, 0,12, 0.00,60.00,Wednesday
25,288739978.61954739
757,15958422.3978944
1870,288739978.6195473
2,11, 1,11, 0,13, 0.00,60.00,Wednesday
25,292653927.23656299
757,25843366.292825946
1870,292653927.23656299
2,11, 1,11, 0,14, 0.00,60.00,Wednesday
25,298471376.5451119
757,25627239.690259678
1870,298471376.5451119
2,11, 1,11, 0,15, 0.00,60.00,Wednesday
25,280844194.0750237
757,15550742.501397592
1870,280844194.07502368
2,11, 1,11, 0,16, 0.00,60.00,Wednesday
25,270343858.4895334
757,15519049.24384916
1870,270343858.4895334
2,11, 1,11, 0,17, 0.00,60.00,Wednesday
25,286153998.7306059
757,20381714.920818915
1870,286153998.7306059
2,11, 1,11, 0,18, 0.00,60.00,Wednesday
25,231939038.0468992
757,12958930.201482768
1870,231939038.04689918
2,11, 1,11, 0,19, 0.00,60.00,Wednesday
25,129145077.9994989
757,19840577.765265656
1870,129145077.9994989
2,11, 1,11, 0,20, 0.00,60.00,Wednesday
25,111574442.0323799
757,17238170.866142915
1870,111574442.03237993
2,11, 1,11, 0,21, 0.00,60.00,Wednesday
25,100873580.38079453
757,18519884.044142974
1870,100873580.38079456
2,11, 1,11, 0,22, 0.00,60.00,Wednesday
25,96230682.93391708
757,34836717.387620169
1870,96230682.93391708
2,11, 1,11, 0,23, 0.00,60.00,Wednesday
25,77772390.65670999
757,6791184.0
1870,77772390.65670999
2,11, 1,11, 0,24, 0.00,60.00,Wednesday
25,72442274.24247962
757,6791184.0
1870,72442274.24247962
2,12, 1,12, 0, 1, 0.00,60.00,Thursday
25,57996196.7332391
757,6791184.0
1870,57996196.7332391
2,12, 1,12, 0, 2, 0.00,60.00,Thursday
25,57609860.1137362
757,6791184.0
1870,57609860.1137362
2,12, 1,12, 0, 3, 0.00,60.00,Thursday
25,57609860.1137362
757,6791184.0
1870,57609860.1137362
2,12, 1,12, 0, 4, 0.00,60.00,Thursday
25,57609860.1137362
757,6791184.0
1870,57609860.1137362
2,12, 1,12, 0, 5, 0.00,60.00,Thursday
25,57609860.1137362
757,6791184.0
1870,57609860.1137362
2,12, 1,12, 0, 6, 0.00,60.00,Thursday
25,57609860.1137362
757,6791184.0
1870,57609860.1137362
2,12, 1,12, 0, 7, 0.00,60.00,Thursday
25,89009706.12984696
757,53634665.6820641
1870,89009706.12984696
2,12, 1,12, 0, 8, 0.00,60.00,Thursday
25,149204168.55602355
757,48555995.62968412
1870,149204168.55602355
2,12, 1,12, 0, 9, 0.00,60.00,Thursday
25,298961043.34164938
757,37028928.56105196
1870,298961043.34164938
2,12, 1,12, 0,10, 0.00,60.00,Thursday
25,267185269.7976275
757,11644270.668907756
1870,267185269.79762746
2,12, 1,12, 0,11, 0.00,60.00,Thursday
25,260376914.03860779
757,6791184.0
1870,260376914.03860779
2,12, 1,12, 0,12, 0.00,60.00,Thursday
25,283336079.1496345
757,15961420.18045938
1870,283336079.1496345
2,12, 1,12, 0,13, 0.00,60.00,Thursday
25,300048695.783905
757,25843601.74714364
1870,300048695.78390499
2,12, 1,12, 0,14, 0.00,60.00,Thursday
25,309042340.51210519
757,25626858.349842244
1870,309042340.51210519
2,12, 1,12, 0,15, 0.00,60.00,Thursday
25,291908509.0513033
757,15548407.274793067
1870,291908509.05130329
2,12, 1,12, 0,16, 0.00,60.00,Thursday
25,293006370.55571427
757,15516241.086604583
1870,293006370.55571416
2,12, 1,12, 0,17, 0.00,60.00,Thursday
25,298525822.7303113
757,20380336.08652124
1870,298525822.7303112
2,12, 1,12, 0,18, 0.00,60.00,Thursday
25,227849950.04845644
757,11055485.670425993
1870,227849950.04845644
2,12, 1,12, 0,19, 0.00,60.00,Thursday
25,129071752.47732765
757,10970630.660462063
1870,129071752.47732765
2,12, 1,12, 0,20, 0.00,60.00,Thursday
25,111567265.93091414
757,7001862.765136332
1870,111567265.93091414
2,12, 1,12, 0,21, 0.00,60.00,Thursday
25,100873580.38079453